Si.data (written by ASE) 

8 	 atoms 
1  atom types
0.0      5.4687279999999996  xlo xhi
0.0      5.4687279999999996  ylo yhi
0.0      5.4687279999999996  zlo zhi


Atoms 

     1   1      1.3671819999999999      4.1015459999999999      1.3671819999999999
     2   1                       0                       0      2.7343639999999998
     3   1      1.3671819999999999      1.3671819999999999      4.1015459999999999
     4   1                       0      2.7343639999999998                       0
     5   1      4.1015459999999999      4.1015459999999999      4.1015459999999999
     6   1      2.7343639999999998                       0                       0
     7   1      4.1015459999999999      1.3671819999999999      1.3671819999999999
     8   1      2.7343639999999998      2.7343639999999998      2.7343639999999998
