Generated by pymatgen.io.lammps.data.LammpsData

108  atoms

  1  atom types

0.000000 10.911092  xlo xhi
0.000000 10.909946  ylo yhi
0.000000 10.911179  zlo zhi
0.005999 -0.005015 -0.005922  xy xz yz

Masses

1  63.546

Atoms

1    1 0.000   0.933077   0.157629 119.016143
2    1 0.000 118.872985   0.044337  38.489483
3    1 0.000 118.958848 118.821678  78.101705
4    1 0.000 118.312287  39.567652 117.517046
5    1 0.000 118.485167  38.221578  38.783965
6    1 0.000 118.445815  40.116951  80.034145
7    1 0.000   1.206658  78.768962 118.759189
8    1 0.000 117.481267  80.454275  38.911402
9    1 0.000 119.057746  79.594686  79.658974
10   1 0.000  39.500057 118.276530   0.475917
11   1 0.000  40.248088   1.475782  38.878197
12   1 0.000  38.862928   0.489104  78.251413
13   1 0.000  39.241363  39.416801   2.461184
14   1 0.000  41.562765  40.190387  40.346070
15   1 0.000  39.607959  38.569028  78.677934
16   1 0.000  40.268424  81.234483   1.214746
17   1 0.000  40.950894  77.109583  40.732175
18   1 0.000  37.953898  79.242993  80.040151
19   1 0.000  80.037167 118.158745 117.052453
20   1 0.000  79.079897 118.935398  38.973535
21   1 0.000  79.178194 117.994893  80.119709
22   1 0.000  79.742266  39.217464 117.318881
23   1 0.000  79.775367  39.384491  40.939213
24   1 0.000  79.549361  39.759714  80.321992
25   1 0.000  78.045685  80.214945 118.459145
26   1 0.000  77.866247  77.892703  42.409633
27   1 0.000  80.640367  81.042074  79.839903
28   1 0.000  41.330020  20.191227  21.746656
29   1 0.000  39.852710  21.257506  58.524500
30   1 0.000  40.394014  20.938700  98.533883
31   1 0.000  40.197120  58.903266  18.513031
32   1 0.000  39.626641  58.886100  60.449766
33   1 0.000  39.201977  58.918423  98.924323
34   1 0.000  39.130402  97.386817  20.463935
35   1 0.000  39.607137 101.146497  58.663779
36   1 0.000  39.193287  98.612869 100.371915
37   1 0.000  79.437418  19.857819  20.018161
38   1 0.000  81.131511  18.221160  60.224526
39   1 0.000  78.421565  20.062455  99.574792
40   1 0.000  80.043305  59.541613  19.818605
41   1 0.000  78.598631  59.475552  62.148170
42   1 0.000  79.391977  60.749875  98.951883
43   1 0.000  79.181759  97.916062  20.369044
44   1 0.000  81.257931  99.879807  59.772405
45   1 0.000  79.650421  98.677454  99.580506
46   1 0.000 118.519416  19.739736  18.717339
47   1 0.000 118.309983  21.738202  60.377562
48   1 0.000   0.361997  18.920221  98.573260
49   1 0.000 118.093450  59.450359  21.500421
50   1 0.000 117.645215  58.491547  57.339794
51   1 0.000   1.178390  59.233363  98.276832
52   1 0.000 118.750664  98.569357  16.281363
53   1 0.000 118.650092 100.901338  58.378283
54   1 0.000   0.793279 100.577448 100.517434
55   1 0.000  18.818756  40.232572  19.639949
56   1 0.000  19.301084  37.878627  59.022930
57   1 0.000  18.998085  38.423845 100.555169
58   1 0.000  20.245729  78.271197  20.718117
59   1 0.000  19.503377  78.795098  59.198982
60   1 0.000  20.064788  80.373309 100.149518
61   1 0.000  20.357519   0.471428  19.807012
62   1 0.000  18.933445   1.306588  58.062176
63   1 0.000  20.469235   1.526792  97.967947
64   1 0.000  61.360247  40.459458  18.724750
65   1 0.000  60.114578  40.545083  60.749958
66   1 0.000  58.856339  39.003426  98.508453
67   1 0.000  59.495878  78.577494  19.546755
68   1 0.000  57.471927  79.097194  62.697502
69   1 0.000  60.063769  79.453711  98.387137
70   1 0.000  60.766243 117.999969  18.353770
71   1 0.000  59.326278 118.614172  59.318131
72   1 0.000  58.378682   0.522147 100.268093
73   1 0.000  98.727370  39.827428  19.158417
74   1 0.000  98.991154  39.754653  60.039863
75   1 0.000 100.364238  39.704684  99.474403
76   1 0.000  99.393721  79.270759  19.451251
77   1 0.000  99.774403  78.646836  59.554093
78   1 0.000 100.410313  80.282700  98.887337
79   1 0.000  97.959905   0.521014  19.018897
80   1 0.000  99.346602   0.065889  58.430910
81   1 0.000  99.626547 117.929209  99.165145
82   1 0.000  19.546584  21.817448  38.934297
83   1 0.000  20.426731  19.585511  80.280346
84   1 0.000  21.714860  19.439766   0.336634
85   1 0.000  19.633280  59.372252  39.092701
86   1 0.000  19.364425  58.115853  78.696396
87   1 0.000  20.826028  58.455731 117.630658
88   1 0.000  19.576816 100.648687  39.218674
89   1 0.000  19.773781  98.812654  77.238220
90   1 0.000  21.156729  99.691705   0.412046
91   1 0.000  61.649334  19.920332  39.491838
92   1 0.000  59.261480  19.400691  78.254040
93   1 0.000  60.466399  19.866888   0.018099
94   1 0.000  60.529312  58.640768  39.867556
95   1 0.000  59.223912  60.583178  81.079124
96   1 0.000  57.691204  59.561242 117.868246
97   1 0.000  59.628089  98.799399  41.132083
98   1 0.000  58.810536 100.027536  79.916783
99   1 0.000  59.941727  99.966342 118.760456
100  1 0.000  99.102321  18.556783  39.669898
101  1 0.000  98.682048  18.902967  79.704363
102  1 0.000  99.300404  20.058988   0.255278
103  1 0.000  97.946557  58.639078  39.472483
104  1 0.000  99.756540  59.919276  80.584520
105  1 0.000  97.873120  60.804926 118.797604
106  1 0.000  98.796474  98.464009  38.888670
107  1 0.000 100.114022  99.115610  78.055341
108  1 0.000  99.213251  97.554673   0.454119

