data.27 (written by ASE) 

108 	 atoms 
1  atom types
0.0 10.911092153  xlo xhi
0.0 10.909945606  ylo yhi
0.0 10.911179240  zlo zhi
0.005998722 -0.005015041 -0.005921913  xy xz yz


Atoms 

     1   1 115.391353296 0.167887124 118.317305368
     2   1 3.545233236 117.404143282 41.338014123
     3   1 118.880982087 118.466804359 79.079365236
     4   1 118.986559942 38.929889474 0.656489162
     5   1 1.022453040 37.666885083 41.904842928
     6   1 117.915476824 37.124111455 80.304002502
     7   1 2.373688025 80.100453546 118.655187067
     8   1 119.052079967 78.882700653 39.464180410
     9   1 116.973742621 78.324890625 79.470373180
    10   1 40.848061787 0.832130494 2.168268202
    11   1 41.215984044 117.932451597 34.854720027
    12   1 42.505532223 0.935155242 82.751159555
    13   1 41.779272651 39.665794136 0.289055586
    14   1 41.510357765 40.595811847 38.775673500
    15   1 39.958752223 38.091336307 77.649645290
    16   1 39.349554065 78.155772546 118.910570638
    17   1 40.441322914 80.320316166 39.667517018
    18   1 38.880726624 82.518394430 79.565780630
    19   1 78.542009233 118.774413904 116.938514096
    20   1 80.704262045 118.826091931 39.704552426
    21   1 76.937117366 118.102054091 79.174917063
    22   1 82.098374752 40.164376310 1.425194250
    23   1 79.789434652 43.922774161 36.725335538
    24   1 75.757195773 41.883905986 78.936558637
    25   1 79.654113838 79.679349484 0.643291811
    26   1 78.978229300 79.750767273 40.554327031
    27   1 77.122605700 80.272260412 77.769806006
    28   1 43.293445638 22.805734858 19.403023088
    29   1 41.025781978 18.731269384 61.174397639
    30   1 40.775902728 21.683768580 98.827128166
    31   1 39.121720519 58.753785858 17.384856939
    32   1 39.159354002 60.513508051 62.290383876
    33   1 39.136800428 56.444535643 99.862053087
    34   1 36.975130372 96.546723127 17.835482605
    35   1 39.643279842 99.096106082 56.972048711
    36   1 38.897670390 99.238007047 99.040689799
    37   1 76.454567993 20.881001905 23.256645511
    38   1 77.851895712 20.101882906 63.113496018
    39   1 78.534813501 22.978549645 100.788935386
    40   1 79.351142580 62.943112207 19.913868770
    41   1 77.598871279 62.046625929 57.590093453
    42   1 80.789370710 59.084384324 98.416878380
    43   1 82.319274756 98.807489820 19.864830686
    44   1 78.039709029 99.413890422 59.197320933
    45   1 77.915618521 95.902500090 98.851342462
    46   1 0.362728408 19.297796109 23.968108705
    47   1 2.441279348 17.971464530 58.865518747
    48   1 117.840754631 18.927427259 100.427692136
    49   1 117.806880419 57.053640985 15.784651252
    50   1 1.081997177 58.568743634 57.436068273
    51   1 1.732798690 56.558712960 100.463737217
    52   1 116.700044775 102.581761703 16.705984153
    53   1 0.721932287 97.412485429 61.111660736
    54   1 0.129508001 99.887295197 97.950717974
    55   1 22.195545606 39.297598156 20.769081663
    56   1 21.096242605 38.800939626 59.730927525
    57   1 19.710923635 37.408081844 98.996383005
    58   1 17.070708068 80.688806057 22.154886870
    59   1 18.745738146 78.678622874 60.200159722
    60   1 19.895187165 80.522756024 99.365188870
    61   1 20.432931893 117.866879407 19.481723429
    62   1 22.827757437 0.073657401 62.101503196
    63   1 19.873436617 117.352211164 100.618259478
    64   1 60.448981471 43.340887142 18.457400911
    65   1 60.284637806 40.438388395 59.080803809
    66   1 58.733762763 40.301049729 99.180340413
    67   1 58.788935146 79.760303448 19.036292877
    68   1 58.186049131 78.261893334 58.256562713
    69   1 57.056916308 77.811082981 99.808055719
    70   1 63.503437437 117.823105663 18.552617848
    71   1 57.080828854 117.639989391 58.564175689
    72   1 59.838695173 2.369798965 101.149918042
    73   1 100.171045661 37.161211219 22.254837178
    74   1 99.519666817 39.203587869 61.741079315
    75   1 99.786156921 40.033354387 99.406748620
    76   1 101.418774711 78.768229427 20.104912815
    77   1 98.238351341 76.605432058 57.093635648
    78   1 101.207945096 78.482466216 99.018310872
    79   1 96.289380553 4.142996325 18.591129629
    80   1 101.668101824 0.959070513 59.302023091
    81   1 96.891992738 117.828334597 97.738048813
    82   1 22.122440895 17.798600181 41.389587924
    83   1 19.363591150 18.116585611 81.184654978
    84   1 21.541968179 17.854805861 118.759318744
    85   1 22.033174007 60.532090125 38.140919376
    86   1 19.403744091 58.913276644 79.239426346
    87   1 18.087733246 59.138857836 1.996492296
    88   1 19.967282189 99.903177334 39.300450500
    89   1 20.353845847 100.874256287 78.450588862
    90   1 17.776941107 99.313837666 116.785325041
    91   1 56.679357678 19.803827817 40.327086193
    92   1 58.336224398 19.876631530 79.877625036
    93   1 62.400606750 19.791261402 1.197312181
    94   1 58.576770701 61.653064657 36.644033151
    95   1 58.489066354 60.720785996 81.274159089
    96   1 60.159851703 60.946999218 118.880697818
    97   1 59.535244957 96.919019903 36.073716295
    98   1 58.868798942 100.225827273 80.808599597
    99   1 60.967152997 97.574924994 118.410311976
   100   1 98.543474764 19.819123926 40.653925398
   101   1 98.281549563 20.692064016 78.819363908
   102   1 98.340387553 19.997315009 116.520124217
   103   1 102.766136086 58.276603237 40.419203802
   104   1 98.281019386 60.881138742 77.941205704
   105   1 99.287422533 59.369620137 118.286634786
   106   1 99.233485335 99.993603575 40.021388803
   107   1 99.221911453 100.259574163 78.062154115
   108   1 97.573166016 99.300426303 118.029912799
