data.7 (written by ASE) 

108 	 atoms 
1  atom types
0.0 10.911092153  xlo xhi
0.0 10.909945606  ylo yhi
0.0 10.911179240  zlo zhi
0.005998722 -0.005015041 -0.005921913  xy xz yz


Atoms 

     1   1 118.891393054 118.270238016 118.433058615
     2   1 118.791948703 118.723635881 40.752990557
     3   1 118.120925527 118.220520204 79.330932668
     4   1 118.622580183 39.337523745 117.388926579
     5   1 1.005106011 40.728195193 39.825343986
     6   1 0.898451804 39.733042844 79.681336218
     7   1 118.909121044 80.245225426 118.151760367
     8   1 118.999499810 78.809858355 39.460196269
     9   1 117.406193440 78.874015789 79.370704670
    10   1 39.923568270 118.596369902 0.887237296
    11   1 39.839444009 117.716299735 38.361842581
    12   1 40.727204526 117.736502741 80.965779172
    13   1 39.176259945 40.229771564 118.225237866
    14   1 38.754260672 40.638909188 38.977284445
    15   1 40.603323145 39.486115577 80.679225886
    16   1 38.299398831 80.691129842 118.755026880
    17   1 39.535038722 80.492275214 37.099968813
    18   1 41.356256216 80.096228277 79.289037802
    19   1 81.568696838 0.972873150 118.962090010
    20   1 78.559408288 0.489453497 40.544543550
    21   1 78.873859384 118.865145567 80.472251746
    22   1 78.518158278 39.071716476 1.850787956
    23   1 78.146157291 39.892149057 40.046902375
    24   1 79.257309534 39.586139937 79.944344132
    25   1 78.378913502 79.082978995 0.069647837
    26   1 81.055500818 80.243600996 38.246318401
    27   1 78.597157707 78.343881276 78.911305192
    28   1 39.297849927 19.422794189 19.545392657
    29   1 38.760192926 21.117446581 60.214213546
    30   1 41.339969299 18.877133562 99.888327638
    31   1 38.675805327 59.244575611 18.184956223
    32   1 39.617898242 59.664330436 57.758136527
    33   1 40.108030904 60.720157061 99.977626438
    34   1 39.853712084 99.586624310 18.577667990
    35   1 41.232426009 97.910465901 58.970279633
    36   1 41.170819598 99.157594393 99.168742946
    37   1 80.399344271 20.044540132 22.050937939
    38   1 77.728301538 20.187310920 57.911450584
    39   1 79.657511681 19.407731449 99.932574052
    40   1 80.361977865 60.805603666 20.834492591
    41   1 78.952387497 59.382710825 59.735551833
    42   1 80.625236129 57.701909522 99.691103348
    43   1 81.688996519 99.843745845 18.753786186
    44   1 79.255086878 99.464070583 58.849336092
    45   1 77.163241340 100.358557077 99.861108923
    46   1 118.853706739 20.735986410 19.822773328
    47   1 0.419968360 20.731464477 60.392767814
    48   1 117.191736996 18.734550173 98.552521486
    49   1 0.823418888 58.790176929 18.538808691
    50   1 0.999973416 60.048513767 60.455221879
    51   1 118.037932576 58.864038383 98.247607652
    52   1 118.111487311 100.378912835 19.809667921
    53   1 118.718710421 98.962493359 60.380597730
    54   1 118.844120199 98.652365560 98.436494366
    55   1 20.516976717 37.846197799 17.673694072
    56   1 21.092588879 40.096843879 60.939098425
    57   1 19.024478399 38.582486299 99.716813064
    58   1 20.231034914 79.460370776 19.008461216
    59   1 19.391902132 79.558977199 59.045753749
    60   1 18.641773417 79.385461601 99.570559279
    61   1 19.364680347 1.117650038 20.199399812
    62   1 20.394504896 117.498359046 60.297156080
    63   1 18.373983340 -0.010145372 98.301785281
    64   1 59.382432165 39.639436499 18.588715550
    65   1 58.031329657 38.960983499 58.940847974
    66   1 59.867979771 39.737301891 101.440599500
    67   1 58.635930955 79.904102133 18.132904932
    68   1 59.673583615 79.041965834 58.092113958
    69   1 61.396816727 79.150084172 99.683423417
    70   1 61.516053328 0.986378883 19.951513802
    71   1 58.362139143 0.213239741 59.317213037
    72   1 60.148202726 0.638227286 100.433773244
    73   1 99.583655245 39.561736698 19.420324266
    74   1 98.047611577 40.141972343 58.494887714
    75   1 100.287358462 39.568392851 98.827097554
    76   1 100.032097010 79.027915532 17.529561211
    77   1 100.150172995 78.219972159 58.958168364
    78   1 98.205652755 78.842568972 98.932824268
    79   1 98.797841143 0.612558330 22.504119097
    80   1 98.457065859 118.803759902 59.578627960
    81   1 98.892401126 118.966902348 98.695490022
    82   1 20.358405830 18.360427284 41.791067112
    83   1 19.036015731 19.320386763 79.278815370
    84   1 20.655730299 18.055077282 117.975767192
    85   1 18.982176746 59.551079541 40.317252587
    86   1 21.012585198 59.836332621 80.989467510
    87   1 18.936978106 58.602778629 117.319525178
    88   1 20.714911600 100.200219715 40.048198857
    89   1 20.578699769 98.679342030 80.531784390
    90   1 19.262733019 98.675401460 118.056840282
    91   1 58.198208326 21.055236778 38.426681939
    92   1 60.669531685 19.059815037 79.977000939
    93   1 60.331570335 20.147763937 1.604638483
    94   1 60.721310111 60.426172998 38.767871049
    95   1 58.888472753 59.040627888 80.130541927
    96   1 59.729943454 59.358827078 1.763293364
    97   1 60.486178563 100.740608523 39.377925189
    98   1 60.575271422 98.959653391 78.333135556
    99   1 60.053538571 99.699109889 0.584888564
   100   1 101.292914103 21.211962816 40.240813220
   101   1 98.555765643 18.431027058 77.726598253
   102   1 100.088825398 20.424158299 0.482467197
   103   1 98.385117624 58.256503775 40.170262928
   104   1 98.398049951 58.305477390 79.547037424
   105   1 98.653574145 59.863699940 118.726799966
   106   1 100.679665244 98.945625084 41.019677862
   107   1 97.605002491 99.060506493 78.702985813
   108   1 99.091349142 99.073224789 116.894993639
