data.62 (written by ASE) 

108 	 atoms 
1  atom types
0.0 10.911092153  xlo xhi
0.0 10.909945606  ylo yhi
0.0 10.911179240  zlo zhi
0.005998722 -0.005015041 -0.005921913  xy xz yz


Atoms 

     1   1 25.141297793 49.260868286 76.683797986
     2   1 33.691757207 75.636588479 103.741130786
     3   1 20.296287811 37.280764405 37.513942222
     4   1 3.875676372 32.604132270 112.199214791
     5   1 98.018395502 50.758225017 76.248158914
     6   1 45.166788008 66.464173430 75.604133585
     7   1 88.839273817 0.333650321 16.634375881
     8   1 38.622402782 49.219469781 57.342572341
     9   1 95.744611815 98.669654672 66.800458530
    10   1 46.063932861 69.100744277 3.659863835
    11   1 54.949297797 17.612541795 83.313088417
    12   1 70.435251931 4.736118978 73.396727404
    13   1 93.678819330 114.211896484 109.223036458
    14   1 0.699655734 2.694611865 48.756463099
    15   1 110.854772871 13.059684796 0.558780359
    16   1 59.552344294 91.918063346 19.263524670
    17   1 111.179744729 115.462033919 23.915955600
    18   1 49.377632548 111.482914109 69.625440444
    19   1 105.149029370 53.978829777 38.792498609
    20   1 75.948929579 101.164398319 114.720334915
    21   1 27.807468992 74.010996628 42.850007032
    22   1 24.743569520 9.282640121 42.599970934
    23   1 101.731910191 91.429421752 114.948540125
    24   1 45.346476684 99.128420526 37.565783024
    25   1 68.927371270 5.352414829 6.335269789
    26   1 67.318050690 47.721562418 2.211261587
    27   1 18.061751333 10.481957582 0.926893571
    28   1 103.677787189 22.572641490 92.723252319
    29   1 72.421421997 106.739486340 53.118232167
    30   1 28.934136702 18.797874601 20.913542135
    31   1 86.271809976 26.416449459 115.397844478
    32   1 89.044522680 69.770052469 112.399918106
    33   1 47.520248881 43.255551516 78.535557185
    34   1 44.711293122 91.972318139 85.095521054
    35   1 58.724109469 39.961180842 41.589085749
    36   1 11.608281952 70.385535594 9.334226033
    37   1 50.820672066 10.015189413 26.264716172
    38   1 91.485024909 90.060209725 89.812210763
    39   1 14.601223660 72.562918566 62.581934711
    40   1 36.334006482 24.141061908 98.639017257
    41   1 83.139256684 32.821272239 53.579622646
    42   1 61.049047068 32.053999690 103.628267202
    43   1 42.080062448 11.023150593 116.981945731
    44   1 31.209721674 118.055029318 86.648251955
    45   1 93.794192924 46.976693812 107.914629912
    46   1 15.017946477 26.374844868 88.541244548
    47   1 75.849920003 61.678114683 28.868057852
    48   1 96.396112024 19.104902005 34.844164739
    49   1 35.588921391 49.126113547 105.443182045
    50   1 14.895711127 30.177437834 61.271988140
    51   1 109.595189806 76.478774688 67.424616514
    52   1 2.184333035 74.600405939 41.556039405
    53   1 82.912891952 30.974519987 89.199602378
    54   1 70.080050968 29.386573521 24.958263495
    55   1 17.843189642 102.057824022 32.461688336
    56   1 3.487860415 48.256251740 88.361568180
    57   1 71.840419113 111.013855699 26.592064494
    58   1 29.456088620 101.898505498 106.041449411
    59   1 106.116321099 69.419170290 92.645402886
    60   1 73.897805615 47.568390054 69.291447393
    61   1 4.527664758 83.475775543 102.943692770
    62   1 108.637797793 63.612968468 117.994543865
    63   1 11.849543999 100.386265262 7.139987142
    64   1 39.059070367 86.566597476 59.427575571
    65   1 3.891134145 94.500861375 55.607093117
    66   1 5.413549759 3.849291419 79.460264798
    67   1 96.068614357 106.379211888 39.484351187
    68   1 97.874905058 80.555073812 41.354532974
    69   1 60.261877154 58.286173393 99.543947328
    70   1 3.910787984 24.581635260 23.753957444
    71   1 2.207897592 51.659429332 63.652360185
    72   1 39.282675794 26.968765908 46.038157941
    73   1 117.956642244 47.400639441 14.979896604
    74   1 98.475201714 66.475611196 19.221341155
    75   1 3.357016047 116.962265040 104.591625544
    76   1 74.170739020 86.672798489 38.320522368
    77   1 51.866891487 64.194321024 24.303549813
    78   1 95.734027496 5.116413665 58.476856883
    79   1 16.483627273 69.648730711 85.267162083
    80   1 21.410202481 113.275156849 61.190812555
    81   1 47.296286960 5.519749692 47.596430371
    82   1 85.209450165 64.327435405 53.832186858
    83   1 113.932307300 32.767736641 43.003997447
    84   1 23.447794214 40.442276130 6.520835584
    85   1 28.676159067 57.197525028 25.470088645
    86   1 46.421945962 91.188056315 117.979963459
    87   1 74.414548236 9.392900195 99.105612114
    88   1 61.143770772 81.799797443 103.309314326
    89   1 30.295195083 83.428599282 19.463968416
    90   1 115.446403095 94.327678630 85.430440985
    91   1 36.834713287 15.587282542 68.869381574
    92   1 45.080551518 38.594829303 17.761526789
    93   1 11.720901310 57.906197598 111.463867878
    94   1 80.378406616 65.946046071 86.575586827
    95   1 87.401858966 89.446663872 17.370895987
    96   1 54.065842011 111.184423484 103.784388435
    97   1 70.100732167 70.289270097 5.775067208
    98   1 70.419380034 80.294095334 68.241903948
    99   1 71.952290614 10.748197730 44.830927745
   100   1 60.066834585 26.534617473 63.249853968
   101   1 57.952523055 61.933010322 52.225215514
   102   1 69.568699778 103.740515215 89.247808644
   103   1 105.675593097 23.714707291 67.717082455
   104   1 34.112601338 111.684680195 14.769854965
   105   1 93.630724378 38.798881495 22.731741340
   106   1 112.660019557 93.669805457 24.922626420
   107   1 99.960047821 117.925366025 85.850254383
   108   1 20.642376407 96.190802410 83.683745096
