data.38 (written by ASE) 

108 	 atoms 
1  atom types
0.0 10.911092153  xlo xhi
0.0 10.909945606  ylo yhi
0.0 10.911179240  zlo zhi
0.005998722 -0.005015041 -0.005921913  xy xz yz


Atoms 

     1   1 5.969129200 35.570531246 102.091356432
     2   1 10.775412547 78.227398790 72.688049624
     3   1 34.157623356 77.384427099 59.133723101
     4   1 24.288037598 32.250687917 14.705675730
     5   1 85.443745214 91.849971122 44.280937344
     6   1 32.425139873 54.867058069 65.456706698
     7   1 61.515464816 8.941026532 58.182636512
     8   1 89.756766129 66.645781415 88.154550314
     9   1 79.819657931 50.409850550 102.094721174
    10   1 23.091563159 58.492380926 90.016138510
    11   1 81.832025934 48.432186801 73.424094427
    12   1 86.933530206 15.655228120 32.498834907
    13   1 76.391223651 110.616112008 102.829862543
    14   1 6.588607859 103.156705979 114.216344226
    15   1 5.341391321 3.019791967 87.357229552
    16   1 49.770179225 94.305781249 106.477445295
    17   1 22.951983260 4.503036560 11.383670865
    18   1 53.806717544 90.621046937 82.168707558
    19   1 112.091851146 54.050223569 46.070837420
    20   1 49.402945814 113.612551540 89.348035865
    21   1 39.110652456 3.526233192 57.564887005
    22   1 9.779319521 3.640839199 55.841549445
    23   1 111.864706154 68.821969026 23.862488727
    24   1 22.654691022 17.724248717 35.832547403
    25   1 69.234160925 9.071900894 15.519302173
    26   1 64.363879274 68.138586609 102.245785814
    27   1 113.412974588 93.567270044 23.485594685
    28   1 110.655265578 104.884592828 71.061645610
    29   1 90.535167398 110.934911009 26.866386539
    30   1 23.598273731 25.928931750 58.128106211
    31   1 73.543812913 35.188586523 1.625050082
    32   1 104.301558484 46.484781448 5.669519182
    33   1 22.159274460 35.758832203 83.010798433
    34   1 16.806301853 81.616173854 106.315304871
    35   1 52.102061110 54.851920964 3.649937471
    36   1 39.253984838 79.577696757 24.993417768
    37   1 46.485592104 33.703518234 46.527409614
    38   1 1.185028228 67.957252174 92.261664782
    39   1 106.601105233 64.351002084 71.158718465
    40   1 47.341669043 3.382251417 118.676737018
    41   1 91.136742478 53.246402061 26.393692108
    42   1 66.131507135 14.231900138 104.220630869
    43   1 66.498003844 37.833038043 33.806263181
    44   1 28.953152679 109.554071455 100.131029832
    45   1 81.811407816 24.205913230 61.609728741
    46   1 21.710588387 14.203281307 109.141913244
    47   1 80.993022258 64.376080951 1.484712926
    48   1 2.285676354 0.734390628 34.441173172
    49   1 29.381179383 40.849368618 109.777179098
    50   1 23.276665939 7.087159365 79.498395460
    51   1 105.459252976 36.896147266 63.029668214
    52   1 15.257731570 95.759912854 50.590687298
    53   1 67.772060120 69.547342177 75.357058611
    54   1 87.681208769 10.437501414 117.707771272
    55   1 51.164749280 108.436286293 19.212939381
    56   1 108.427071270 15.118199167 106.368084277
    57   1 65.934649214 117.269000206 33.969149371
    58   1 12.796187705 77.507317859 19.118300713
    59   1 106.603859052 86.057146982 91.474901134
    60   1 43.828522667 60.979525603 42.502433554
    61   1 110.476899336 44.795627262 85.139224772
    62   1 2.673642177 25.375684796 2.222857950
    63   1 93.658219131 101.045066595 116.597834103
    64   1 12.091510026 99.222656593 84.120338658
    65   1 105.500001374 78.372340905 45.334681246
    66   1 47.030807219 20.530367451 74.978759571
    67   1 22.669568320 107.131685999 28.763906352
    68   1 86.082562404 84.286907724 16.602833141
    69   1 60.946523802 37.869579561 89.071427037
    70   1 108.074862769 118.706329457 9.918109807
    71   1 3.858732341 20.991309167 73.315408011
    72   1 61.285138514 46.025616550 63.930183710
    73   1 25.140184104 43.939365934 38.612446303
    74   1 3.881179799 49.858534371 25.087350929
    75   1 99.001355852 114.533516643 94.511913573
    76   1 85.322786810 0.460048101 49.985393738
    77   1 60.971953324 78.840061749 7.056833294
    78   1 111.322165312 102.965360073 48.113688476
    79   1 8.542895330 48.079830003 66.474751468
    80   1 62.506125207 105.580570821 61.360988966
    81   1 74.611795836 59.119148297 47.083818396
    82   1 62.654116453 89.856241333 29.641256647
    83   1 89.982351045 38.967284153 43.164983260
    84   1 27.339180215 55.000217535 12.223111962
    85   1 42.188361151 100.020914343 46.501857279
    86   1 33.141299542 84.952426294 87.586443123
    87   1 89.327312022 28.887414645 90.896446138
    88   1 38.055370600 72.848835023 113.655200185
    89   1 30.785635923 95.818262939 3.609174130
    90   1 103.683469933 77.884363929 117.645012623
    91   1 42.098253503 20.930445423 102.120314424
    92   1 43.533171680 44.112673626 22.813911604
    93   1 51.455625102 28.621410185 7.959927054
    94   1 44.892130450 66.357589904 84.696099373
    95   1 70.465361394 104.992941435 6.741479576
    96   1 68.915632438 12.421744783 83.595214481
    97   1 76.890855324 88.587119503 99.925004605
    98   1 57.311356370 77.903160423 51.212626838
    99   1 104.010563429 24.257630383 17.857820776
   100   1 61.271380629 65.658430893 25.254434936
   101   1 33.398954614 103.263795412 68.883633370
   102   1 86.448797180 88.807892805 71.454727598
   103   1 105.492233737 14.830495834 55.297532021
   104   1 49.308971464 13.467570080 33.710948517
   105   1 117.027836021 29.020904868 40.123743580
   106   1 16.138147817 68.604138929 40.988564080
   107   1 84.289724443 113.411345423 73.212582433
   108   1 4.482893190 61.671654570 116.870789624
