data.71 (written by ASE) 

108 	 atoms 
1  atom types
0.0 10.911092153  xlo xhi
0.0 10.909945606  ylo yhi
0.0 10.911179240  zlo zhi
0.005998722 -0.005015041 -0.005921913  xy xz yz


Atoms 

     1   1 118.621570237 118.682870394 118.495462007
     2   1 0.158364644 117.449988823 39.546357577
     3   1 0.573046303 0.425776259 80.016042363
     4   1 118.984550205 39.102606751 117.749977843
     5   1 0.090026584 39.173861551 39.315628960
     6   1 118.528506780 40.154640499 79.453937245
     7   1 118.596586229 78.923789721 118.150120827
     8   1 118.879831477 80.581518432 42.193717795
     9   1 2.091686550 81.423188959 80.514880088
    10   1 39.863669893 0.578816926 0.677947323
    11   1 39.502221005 117.467148795 39.728632297
    12   1 39.428447453 0.662965799 78.099503680
    13   1 38.863851021 39.527290916 0.646441608
    14   1 38.633903718 38.851947662 39.874308191
    15   1 39.234506511 38.688716014 77.898952729
    16   1 39.337911360 78.937127966 1.684182775
    17   1 39.290432418 78.969334029 39.059104448
    18   1 40.434951494 80.395993885 79.405376080
    19   1 78.908800813 118.411389658 118.678632841
    20   1 79.924970403 118.850173805 39.195109162
    21   1 79.213119093 0.020289251 78.850177581
    22   1 79.946958357 40.718006964 0.480595540
    23   1 79.896372879 40.440752312 40.250929986
    24   1 79.688337543 40.150185800 77.792894952
    25   1 79.645958215 77.557675308 118.886778270
    26   1 80.151402740 78.960459285 39.620715724
    27   1 77.643498039 80.132080859 79.680694278
    28   1 39.956748373 21.142728837 19.114134330
    29   1 40.721086175 19.460135889 58.861879293
    30   1 40.417299126 20.160459606 100.148068963
    31   1 40.477803936 59.470671720 20.479362616
    32   1 39.486402948 59.673377344 59.730318293
    33   1 41.235663758 59.317754930 98.492672831
    34   1 40.141917535 100.499909315 19.251003599
    35   1 40.044245248 99.256981040 59.694775701
    36   1 39.944092711 99.967615296 100.624895312
    37   1 79.542184288 20.391060113 18.701088967
    38   1 80.527394350 19.922526475 58.695824690
    39   1 79.295733920 20.500745266 100.170612090
    40   1 80.147074198 59.079893182 19.845833386
    41   1 80.262600849 60.129815011 59.347857534
    42   1 80.098080605 58.101220688 99.077525701
    43   1 78.013920921 99.671761610 18.736043838
    44   1 79.060639353 99.187498183 60.080234673
    45   1 78.681126131 98.673745954 98.737695563
    46   1 118.868399230 19.096187746 20.197128020
    47   1 118.322544888 19.045737726 58.982634947
    48   1 1.797253738 20.076497286 98.044088486
    49   1 118.044476005 60.106636140 18.498740993
    50   1 118.037514257 59.494468366 61.506071872
    51   1 118.640418353 59.243026102 98.455707376
    52   1 0.734793658 97.087269663 20.383525495
    53   1 0.298949187 98.907619172 61.043659518
    54   1 118.871887550 99.955122178 98.642452198
    55   1 17.846675772 41.693576642 19.294584929
    56   1 18.026921604 40.607825738 58.966437270
    57   1 19.928380739 39.688611968 98.604192129
    58   1 20.606339307 76.921868270 19.037762669
    59   1 20.662648724 79.009175430 60.611382634
    60   1 20.428317813 80.021857297 99.427004512
    61   1 20.304217121 118.705565844 20.755322302
    62   1 20.348977603 118.939564989 58.929181219
    63   1 21.576689582 0.891263185 98.707464392
    64   1 60.334729451 40.683320994 20.308872312
    65   1 58.854588615 39.739820809 59.736397910
    66   1 59.616771747 39.005741035 98.410002061
    67   1 59.330968878 78.413682139 21.797036755
    68   1 58.670449886 77.989141661 59.465598466
    69   1 58.715027863 80.286096760 99.866072965
    70   1 58.823788901 0.431107693 19.971267733
    71   1 60.237028806 0.167015536 58.297632978
    72   1 58.651218146 0.800177540 98.543560946
    73   1 99.799836721 39.617446278 19.849740797
    74   1 99.958403123 38.540856108 59.310277634
    75   1 98.243828290 37.445466270 99.197302960
    76   1 99.290556799 79.716118347 20.400272997
    77   1 98.171557956 79.787770266 60.318535932
    78   1 99.190974321 80.839921020 97.906829761
    79   1 99.385196520 117.555324380 18.718066044
    80   1 99.645337413 118.937605416 60.127323424
    81   1 97.765303453 1.067033592 98.547701315
    82   1 19.759159702 19.462113559 38.331279438
    83   1 19.483415758 20.609854545 77.433290523
    84   1 19.698427160 19.846314971 0.642355758
    85   1 18.492952250 60.381864140 40.579183182
    86   1 20.403160165 59.960967703 79.209349438
    87   1 19.642720834 59.271428815 117.617901176
    88   1 19.441899455 97.828196616 39.272530519
    89   1 22.141323950 100.105708447 78.872944313
    90   1 20.491117207 99.893613381 1.656474111
    91   1 59.104968048 19.928191252 39.486098321
    92   1 60.821898623 19.984425677 78.862561888
    93   1 59.432139285 19.995150220 118.973611380
    94   1 60.115438776 58.221145027 39.745944195
    95   1 59.776899998 58.753299560 80.345062530
    96   1 59.558702049 59.453926920 0.013705797
    97   1 58.999151806 97.545451717 40.691600768
    98   1 58.227980663 100.152280059 79.252424626
    99   1 58.413706045 98.865865268 0.688718728
   100   1 98.526890433 18.282115390 37.829143975
   101   1 100.143485074 19.600533837 79.137331130
   102   1 100.193495518 19.116416085 118.677957735
   103   1 101.806880187 59.838231165 40.647618855
   104   1 98.667487109 60.091508683 80.144666149
   105   1 100.023592263 58.770673904 118.511275904
   106   1 98.607164624 99.172845797 40.364758820
   107   1 98.198067972 100.120031916 79.018107173
   108   1 98.577209298 98.287800826 118.805160016
