data.42 (written by ASE) 

108 	 atoms 
1  atom types
0.0 10.911092153  xlo xhi
0.0 10.909945606  ylo yhi
0.0 10.911179240  zlo zhi
0.005998722 -0.005015041 -0.005921913  xy xz yz


Atoms 

     1   1 13.770083573 37.613159922 86.066902091
     2   1 19.806619773 87.181618115 80.026565015
     3   1 21.302095595 73.378189266 55.900446604
     4   1 20.955677888 26.964565003 12.109821246
     5   1 75.622965852 53.037693929 51.055668769
     6   1 35.589467921 56.653773518 76.636411292
     7   1 64.083586417 4.862406381 44.667609850
     8   1 102.793413891 64.782258181 51.819706314
     9   1 79.494387823 73.681501184 69.439716040
    10   1 21.310288800 66.792321818 99.305555829
    11   1 59.368916595 10.215608934 71.701609911
    12   1 80.413322593 118.065458412 59.098844173
    13   1 79.630845594 117.161344615 112.583305445
    14   1 3.969167571 103.839193146 76.300089573
    15   1 118.072462669 8.157312798 115.277652269
    16   1 68.507098622 97.356548965 118.339699490
    17   1 20.723934715 115.893561643 7.146781512
    18   1 64.869734211 81.425403165 88.935748935
    19   1 101.204297637 45.265608877 31.291863432
    20   1 56.019957711 108.648389305 90.712758692
    21   1 50.263031794 91.618287577 43.289799792
    22   1 15.359442775 4.168465598 53.904312225
    23   1 104.251158544 76.877053008 118.497009113
    24   1 40.949333107 116.158682582 50.261962229
    25   1 60.269731057 116.583852278 11.214752426
    26   1 62.735746146 57.355343711 103.344703197
    27   1 7.387480313 107.010563435 102.365175523
    28   1 115.380914231 18.917316754 92.081489936
    29   1 86.064091296 108.053558781 37.518772185
    30   1 11.038217261 20.398099274 37.531047787
    31   1 85.252011451 41.696903801 105.054366998
    32   1 103.157807535 54.788000591 5.629109534
    33   1 48.911620704 34.168600567 71.008385178
    34   1 41.069298049 87.356826903 93.402154147
    35   1 81.119203630 47.325675679 10.989636843
    36   1 31.960899777 60.585437276 7.175909868
    37   1 40.719905145 27.255300508 45.093007133
    38   1 86.657630675 71.140707760 101.980801818
    39   1 97.106045365 89.379572317 55.018903813
    40   1 38.535529105 6.814447360 2.122035512
    41   1 98.295120948 26.751373434 13.452199232
    42   1 73.815709484 23.516823909 0.939912156
    43   1 58.664747774 19.912999948 22.518046671
    44   1 29.703185016 116.278813322 96.256597497
    45   1 91.545941276 25.707443033 87.477926475
    46   1 18.862573615 18.522060467 104.303723143
    47   1 73.173344132 75.706387154 4.743043491
    48   1 109.276145644 22.788916624 45.127375697
    49   1 40.839470449 47.490592718 106.707912336
    50   1 10.559043783 9.431367066 75.819920559
    51   1 92.563761937 54.395390277 84.251251166
    52   1 26.762419264 96.606181195 53.684744138
    53   1 75.989357963 39.213138099 71.996826162
    54   1 89.415949650 117.792600607 16.861113252
    55   1 14.903361177 110.799762978 31.787904691
    56   1 112.749392299 36.178933672 111.637802720
    57   1 38.563872190 107.124850187 24.252918314
    58   1 118.074956576 102.303536825 10.893415581
    59   1 99.312606534 79.632721180 79.538498604
    60   1 49.824064590 57.809760622 53.393629958
    61   1 116.605945032 58.751453373 92.080387524
    62   1 15.643925699 48.092062440 112.799125207
    63   1 102.028455734 112.061008648 116.153940086
    64   1 29.297466409 111.807758995 74.631776949
    65   1 107.779093273 84.936719375 32.092956166
    66   1 29.410964222 21.417490672 65.519456576
    67   1 112.404123463 115.426076259 44.990792652
    68   1 92.820122593 69.627434328 22.089045934
    69   1 62.249988610 37.545361290 92.779410721
    70   1 117.127868473 9.304758562 21.364967326
    71   1 4.335583492 53.174273151 66.524519157
    72   1 25.614755188 43.422223999 56.759879838
    73   1 4.498953399 56.185098296 42.546565305
    74   1 4.110377236 68.071479394 16.013560133
    75   1 101.037472046 113.746202376 91.132657962
    76   1 68.524603426 97.262570534 25.255741282
    77   1 57.380179881 52.969742551 12.214215641
    78   1 101.340230202 5.020753053 66.961677586
    79   1 1.885172501 82.356782435 60.875710420
    80   1 55.711450413 100.790843489 68.096941134
    81   1 64.236234065 31.163644691 52.372480476
    82   1 66.026007861 65.332388742 31.884318530
    83   1 96.212341338 34.343584190 65.280419838
    84   1 25.913076851 42.510205685 33.356998235
    85   1 35.957188350 69.559724994 34.996958902
    86   1 42.408582306 102.712649443 1.650823472
    87   1 95.417557877 15.721361391 110.656697102
    88   1 49.287627771 74.830041508 112.551643738
    89   1 47.191950602 83.177985605 15.850079446
    90   1 1.083613571 83.800572113 96.196415695
    91   1 39.435245771 26.387896148 90.153194145
    92   1 48.340886673 47.124893294 32.013759873
    93   1 43.964863087 32.565537897 6.547347184
    94   1 62.622893756 57.236750595 77.105718539
    95   1 90.965479505 93.004619186 12.320637012
    96   1 61.198040178 10.112709117 102.297056951
    97   1 85.627910599 94.759107373 99.766084733
    98   1 70.890233766 85.386159325 50.086553501
    99   1 86.367881095 19.958379507 41.322694816
   100   1 71.275822773 37.140045451 29.233967674
   101   1 45.405898383 77.233059384 66.526638485
   102   1 78.764074782 100.389879552 77.238466948
   103   1 1.196722198 29.553058508 64.276398069
   104   1 34.458818786 11.153706497 31.482365651
   105   1 2.361094513 37.499155997 23.300852448
   106   1 19.024793519 84.533164689 30.656392290
   107   1 77.502028810 5.344656853 85.544613600
   108   1 22.647396313 90.987915379 6.237338212
