data.95 (written by ASE) 

108 	 atoms 
1  atom types
0.0 10.911092153  xlo xhi
0.0 10.909945606  ylo yhi
0.0 10.911179240  zlo zhi
0.005998722 -0.005015041 -0.005921913  xy xz yz


Atoms 

     1   1 2.249421579 0.381676813 1.832663797
     2   1 118.122187562 0.677547281 39.609662135
     3   1 118.629304190 0.994642941 78.851057009
     4   1 118.167595679 39.783441348 117.090663996
     5   1 116.914719640 40.464217471 42.412944349
     6   1 118.620214058 40.795136789 79.869402526
     7   1 1.374884695 81.162250733 118.512800777
     8   1 118.989389259 79.444259615 37.070089750
     9   1 118.220501663 80.548370350 77.171688786
    10   1 38.229837244 118.493376083 116.528125252
    11   1 40.539910135 118.249464597 41.790814245
    12   1 39.333804820 1.394219123 79.065033940
    13   1 39.707710836 40.564779276 118.761506380
    14   1 40.225567723 40.031945312 39.719476063
    15   1 40.282393800 39.187776506 78.592403048
    16   1 41.424038108 80.188625616 2.909989640
    17   1 38.779717157 80.977001357 42.273774080
    18   1 39.754785725 80.066247835 79.701240089
    19   1 83.448147246 118.235087819 0.733254579
    20   1 81.233265574 116.944407352 37.928690291
    21   1 80.665250632 0.300979089 81.217576089
    22   1 79.961413727 35.577945259 118.256875348
    23   1 77.469557213 39.325494835 38.231950310
    24   1 79.926112613 37.934489120 81.760741422
    25   1 79.520902741 77.597933833 2.383620247
    26   1 80.549952748 81.073904543 39.833206525
    27   1 77.761904736 80.222462021 80.265383096
    28   1 38.110334477 20.211005147 19.298712298
    29   1 39.813748456 22.898320342 57.594769983
    30   1 38.992424830 19.838459601 99.768878837
    31   1 38.353906947 60.861617618 22.018949828
    32   1 41.009723978 55.882897501 61.172106599
    33   1 41.333500295 60.563044661 99.971910052
    34   1 40.908488364 100.700322827 19.740806086
    35   1 38.003222543 98.746870668 60.281020955
    36   1 39.199946064 100.208313837 94.874689046
    37   1 83.167437596 19.158745246 19.632520668
    38   1 80.642701785 17.574041143 55.781537289
    39   1 79.196905580 17.035065550 99.683345734
    40   1 76.759564920 57.147993180 17.825000100
    41   1 77.507777418 59.492412509 56.960297842
    42   1 79.138337768 57.670965152 100.782812600
    43   1 79.208972137 98.598093194 19.259080428
    44   1 77.967046573 98.366672877 59.890101302
    45   1 79.410280350 99.696769449 102.050667974
    46   1 114.779058930 22.370067396 19.017884395
    47   1 3.138147003 20.674118505 59.250180774
    48   1 118.814190754 21.477948807 98.868160992
    49   1 118.395585396 60.383660304 18.847852225
    50   1 117.995162560 59.443801011 59.242786992
    51   1 118.680907050 60.770593451 98.718921323
    52   1 2.622137245 96.396939018 20.775433889
    53   1 1.229308410 99.265887032 56.005275877
    54   1 1.165272756 97.900194714 99.387227912
    55   1 17.164634135 41.540692076 22.025837478
    56   1 19.867397259 39.040003102 57.431957495
    57   1 20.072205088 37.168246023 98.770859171
    58   1 22.035770081 81.620746732 21.789818449
    59   1 19.874792620 77.157404194 60.520720837
    60   1 19.664077852 80.004782890 99.745000586
    61   1 19.437631940 117.173540745 21.249077384
    62   1 18.946759400 1.024155646 58.466391982
    63   1 17.237952640 0.710221570 96.736835314
    64   1 59.078577514 37.341764995 16.790603582
    65   1 63.349276863 40.116529784 60.634174391
    66   1 58.779184157 38.454244069 102.660430780
    67   1 59.698567639 78.422373935 22.669051237
    68   1 57.409799590 76.907218261 58.969715264
    69   1 59.654889557 83.455767541 101.868311100
    70   1 59.698350407 117.449581405 18.585523413
    71   1 61.531875621 0.252215558 60.752833440
    72   1 59.241599883 118.228325476 97.626558849
    73   1 98.061687739 41.952630088 22.051768095
    74   1 97.086662257 42.163636833 60.920787144
    75   1 98.776744695 40.204499707 100.531582882
    76   1 99.309946185 79.357796356 19.836381576
    77   1 98.275785434 78.647611854 63.169135589
    78   1 98.752710698 82.445664108 99.751136783
    79   1 102.982889893 113.796553857 20.729032368
    80   1 99.529581642 1.605791772 57.458868900
    81   1 102.240255588 0.403456703 97.674054478
    82   1 17.798829690 20.097840775 36.787707731
    83   1 20.277033929 18.561843592 77.934896242
    84   1 18.360519500 19.687477201 0.526026987
    85   1 19.790079015 60.125901028 39.584507555
    86   1 19.096768557 60.924701232 79.259548672
    87   1 18.462074399 58.857321158 117.422705948
    88   1 20.291945763 99.194307599 40.954581292
    89   1 18.303573283 99.910636841 77.093650148
    90   1 23.048263869 99.438293517 116.431983118
    91   1 59.503885588 18.023371148 37.572563280
    92   1 60.706823833 18.661356961 77.922212298
    93   1 58.467493527 18.538135579 0.778349367
    94   1 59.465820851 57.424303572 37.472509369
    95   1 61.851190119 57.845797382 81.955994706
    96   1 60.098220906 60.024507104 1.174279986
    97   1 58.929341450 100.258197108 40.027388546
    98   1 60.948620799 98.171704232 80.071219806
    99   1 56.113958304 100.868473638 117.834535331
   100   1 97.939810746 22.189822474 39.483927359
   101   1 100.583936615 21.142316307 77.990875566
   102   1 103.233318275 16.954144432 116.977050116
   103   1 99.004234609 60.925462963 38.161283223
   104   1 98.251130471 59.364965305 80.808500435
   105   1 98.065079660 61.245038333 118.449878085
   106   1 98.246488225 97.869695801 41.541526022
   107   1 99.561318569 100.821915569 78.393257857
   108   1 100.082782063 97.150057408 0.314883673
