data.86 (written by ASE) 

108 	 atoms 
1  atom types
0.0 10.911092153  xlo xhi
0.0 10.909945606  ylo yhi
0.0 10.911179240  zlo zhi
0.005998722 -0.005015041 -0.005921913  xy xz yz


Atoms 

     1   1 14.553678800 60.980178104 105.996090443
     2   1 19.816409400 55.507613290 61.158121424
     3   1 34.781700579 74.236884494 36.536470244
     4   1 31.451874567 36.044838165 5.623900749
     5   1 82.069713326 87.066189827 35.894409687
     6   1 43.513628897 42.068186818 80.202296041
     7   1 48.262111633 117.214670704 35.383088929
     8   1 94.047248472 81.137804709 80.656350580
     9   1 80.794147169 61.869575618 89.495378004
    10   1 20.860269762 62.780324650 83.217937036
    11   1 92.439093660 53.463641998 57.944852447
    12   1 75.876433020 14.540715400 41.827505934
    13   1 79.443614375 103.556466564 115.187098103
    14   1 10.848665482 114.623569285 118.290638814
    15   1 117.970695539 15.549311570 95.846846238
    16   1 43.809319649 68.615603084 99.255294847
    17   1 29.839167801 5.655032149 15.890947938
    18   1 61.538649392 79.767455360 82.397363608
    19   1 11.438236057 59.753017293 37.121396653
    20   1 53.793025212 108.595201926 76.205914757
    21   1 38.068472063 101.076058184 58.837628564
    22   1 16.211382363 107.465147543 67.896226056
    23   1 117.538612420 72.716830676 14.753723436
    24   1 7.548415993 25.489970141 18.415682202
    25   1 74.265358229 10.049784173 114.723397353
    26   1 61.283046627 53.717826708 95.989700383
    27   1 99.223908631 106.821226906 19.401737222
    28   1 105.463213239 103.228131954 67.266281056
    29   1 94.310449808 114.999920759 44.843736892
    30   1 15.064206760 10.897550440 77.775132276
    31   1 75.819666028 33.415222415 15.409015402
    32   1 89.637523256 57.364124797 114.578989180
    33   1 28.849056456 36.535276343 102.470813241
    34   1 111.501037656 66.730710511 107.995660024
    35   1 55.801394773 27.704811962 107.913022998
    36   1 34.363092825 98.980359859 30.751033607
    37   1 39.721628903 5.961616004 65.728113692
    38   1 0.961746576 84.611228083 85.078430668
    39   1 109.003434661 69.944277548 63.330720949
    40   1 55.981112919 97.828248825 102.994998857
    41   1 82.737672969 64.128213396 21.759741428
    42   1 87.805524663 33.043954126 110.851165037
    43   1 61.537145625 35.106370945 37.313299859
    44   1 22.744792745 83.223792258 105.362249096
    45   1 61.487119527 10.340973429 61.559684483
    46   1 24.574292042 14.234480525 111.747501190
    47   1 67.684382783 49.762322486 0.595140229
    48   1 109.838475483 10.864369260 70.926235969
    49   1 41.591406190 56.127834126 117.791789875
    50   1 31.056635150 110.415952508 95.292796576
    51   1 115.345913239 37.003028731 60.187299613
    52   1 4.826367951 108.667651469 45.791801094
    53   1 69.664175351 61.645703328 67.532688448
    54   1 96.864966297 18.404003484 19.618181570
    55   1 48.026741945 104.782668700 9.504430975
    56   1 110.944040165 40.226061320 113.657375049
    57   1 52.608925792 15.774523639 15.994402998
    58   1 118.417911131 0.177335934 24.149947047
    59   1 99.291520368 101.488191682 92.496133801
    60   1 47.394136149 53.858381302 47.991014625
    61   1 109.107902279 57.903465881 86.232561412
    62   1 114.730902578 16.937175807 0.428221818
    63   1 115.152031214 93.548305570 113.035528061
    64   1 2.161774641 110.926114154 89.787299763
    65   1 103.017034043 69.805148328 38.085927143
    66   1 41.858137186 16.982201260 88.748062742
    67   1 23.327226047 1.996903055 40.153971310
    68   1 97.196818675 84.320895652 11.657806863
    69   1 79.769656181 41.034147604 85.343246343
    70   1 111.170246360 18.174301319 46.556701958
    71   1 7.098599687 39.342570967 93.176423147
    72   1 63.606602967 34.900198305 66.953166648
    73   1 33.653126583 48.128939890 29.939143672
    74   1 103.371035850 49.666978383 16.172575472
    75   1 102.720129169 114.481123009 114.728425673
    76   1 66.607319059 109.101263855 56.104063830
    77   1 67.766728112 78.842559182 110.793501547
    78   1 104.418385864 93.250796629 41.872283840
    79   1 21.003345229 33.938682531 74.878680525
    80   1 54.883924541 81.943709593 56.142163589
    81   1 56.172419443 71.926310236 29.563125586
    82   1 70.293682957 93.982185848 15.393219457
    83   1 86.795865125 37.912350846 36.362619189
    84   1 22.848422730 66.185748130 14.895198734
    85   1 57.478481657 94.269033958 37.555700036
    86   1 35.369975930 88.011348077 82.670289679
    87   1 104.880747876 32.218233051 83.276380644
    88   1 18.654139902 96.094081482 12.539587799
    89   1 38.824509059 81.483888111 5.300605850
    90   1 92.584454870 81.715695865 106.944622316
    91   1 66.785823502 7.747561663 88.414336612
    92   1 38.275021303 31.784232668 56.792281404
    93   1 52.390896919 2.114130960 111.234836893
    94   1 40.414549133 66.589112855 71.070181137
    95   1 75.903991477 1.425731979 21.440930528
    96   1 94.666994448 11.321955561 95.840921244
    97   1 73.172404909 100.203318219 88.288973945
    98   1 77.587929933 66.943043757 45.951242362
    99   1 113.304388650 39.776975900 36.016668119
   100   1 54.728310853 46.619198724 18.761838847
   101   1 12.844131557 83.310420557 63.955911490
   102   1 81.930450640 90.072033593 61.447384392
   103   1 91.454097853 29.104395406 63.054023945
   104   1 37.305981891 23.430151176 34.094413500
   105   1 17.594248585 27.573570643 45.984580835
   106   1 10.893457067 85.264078560 35.975604448
   107   1 84.438116349 5.295865674 66.227353704
   108   1 8.360936709 49.369874351 10.275025914
