data.25 (written by ASE) 

108 	 atoms 
1  atom types
0.0 10.911092153  xlo xhi
0.0 10.909945606  ylo yhi
0.0 10.911179240  zlo zhi
0.005998722 -0.005015041 -0.005921913  xy xz yz


Atoms 

     1   1 16.590119291 49.031599153 97.999673885
     2   1 8.078199246 74.775172601 62.544802028
     3   1 32.840565377 81.995691048 55.106974736
     4   1 31.499049956 36.520361935 12.401592146
     5   1 85.820292018 92.783244801 40.582565882
     6   1 28.151881751 48.062260600 59.809688190
     7   1 55.434950856 10.776928302 45.844389556
     8   1 97.030594703 73.953785118 84.663370712
     9   1 81.294274883 54.137887905 106.269023420
    10   1 23.400950331 67.654089087 80.641253303
    11   1 79.833911294 36.212803850 84.759611691
    12   1 83.767750402 17.792478528 44.773696501
    13   1 71.475596031 117.190047054 109.701055027
    14   1 8.234752207 105.447577323 116.043249220
    15   1 2.507385408 1.146107773 94.745170381
    16   1 54.918993095 95.500872816 106.364067491
    17   1 20.399645315 7.723139464 6.871672148
    18   1 69.361757727 84.526866124 83.491480931
    19   1 116.822865142 56.063500845 50.353150341
    20   1 48.666770575 113.061390834 85.083808902
    21   1 37.124108870 116.869327055 59.154272807
    22   1 11.815682550 118.181612967 52.987134316
    23   1 116.519079914 73.800571552 10.804351331
    24   1 11.064795268 23.186692593 23.657135475
    25   1 69.891895020 14.991243536 9.787633696
    26   1 60.250347359 66.371996401 102.013622758
    27   1 113.646715105 91.436129963 24.514911185
    28   1 106.354316349 108.681888865 75.921457498
    29   1 94.392907447 116.337337407 34.918767473
    30   1 9.719406024 18.622747125 74.935035912
    31   1 88.498133260 37.883828636 15.666134528
    32   1 110.788932493 50.614217240 111.529557201
    33   1 33.230093476 38.115736044 82.037238160
    34   1 5.681296671 77.417482255 108.102669614
    35   1 62.704617003 41.291712346 114.528656036
    36   1 38.613460167 83.177826931 26.669227007
    37   1 26.906086676 19.469580225 47.162615971
    38   1 0.311785611 65.974865002 86.987629597
    39   1 100.686550127 66.121306502 64.108800719
    40   1 37.931594973 0.146071993 106.974471736
    41   1 102.797052390 57.332122564 26.826257922
    42   1 72.826329231 23.087727315 105.339117069
    43   1 66.944837880 32.371446049 39.587297268
    44   1 20.107645059 94.628116612 94.615406402
    45   1 66.324824037 24.384396203 61.934742672
    46   1 25.964326874 22.673134916 104.501907886
    47   1 75.601319792 62.814973186 9.070217583
    48   1 110.808905223 12.984122878 49.208035787
    49   1 38.581912470 47.225415268 108.874325346
    50   1 23.985972720 3.088888263 82.639925567
    51   1 104.098448156 34.173809651 66.454686543
    52   1 16.613415001 93.431521469 40.259719430
    53   1 75.569025209 70.317767604 64.457371985
    54   1 91.073382210 14.271532259 14.530678260
    55   1 52.558897193 106.908880906 9.221060706
    56   1 93.596426808 31.232128079 113.041743095
    57   1 69.761378095 116.368075018 29.383236421
    58   1 18.291675383 86.500740166 16.947092628
    59   1 93.034504363 93.222916814 99.162411266
    60   1 48.638161139 59.387863463 37.521899289
    61   1 102.297004141 43.558441197 89.343873853
    62   1 114.348908035 14.854591872 118.799960787
    63   1 104.334013054 95.404433153 0.270303081
    64   1 1.437809561 91.621173398 81.176349038
    65   1 111.481010179 83.828193329 45.523387014
    66   1 42.637058615 19.765879566 67.481994820
    67   1 25.473105739 113.429723062 32.991682517
    68   1 87.623667156 78.035430288 22.426175974
    69   1 59.373768623 50.060799745 82.913430378
    70   1 117.466989480 114.621794412 19.582582457
    71   1 2.484311406 29.587320305 100.056693633
    72   1 60.678476916 46.898023757 56.364834412
    73   1 20.704375472 42.838210171 35.831366545
    74   1 3.306681607 44.049642043 12.628690768
    75   1 98.539339422 1.489940853 112.355452309
    76   1 75.753416301 111.335999232 54.339627655
    77   1 52.736007287 75.058136610 5.894990939
    78   1 107.601625619 107.498935923 51.037614570
    79   1 9.027689027 43.703489494 73.856810110
    80   1 55.534035483 100.964375957 67.016515274
    81   1 76.181371429 63.976329281 36.683374118
    82   1 61.331869292 92.487927030 22.840797710
    83   1 87.453204491 43.766047039 47.413762915
    84   1 37.594335582 59.438152117 16.578360048
    85   1 44.718965096 104.544727738 37.806597872
    86   1 46.657222939 82.998743680 81.180720277
    87   1 101.743745529 17.214306027 92.691332264
    88   1 34.966788530 77.556967545 101.111033004
    89   1 29.020341813 95.669704388 0.124170776
    90   1 96.053064026 71.901532560 115.788216565
    91   1 52.535456954 21.760756007 93.386756252
    92   1 44.154269855 34.024768935 31.839091568
    93   1 49.291194092 19.885623262 0.149541228
    94   1 50.485209504 66.756177988 65.896383754
    95   1 85.666374122 106.385645545 11.401479593
    96   1 75.085053084 10.037501710 85.597228847
    97   1 75.533627517 88.244912021 0.368619598
    98   1 60.020249368 81.377797085 49.451667212
    99   1 107.492509274 33.117512373 29.927159702
   100   1 62.100555862 46.114088845 18.687649286
   101   1 26.941995588 97.035229324 70.432917731
   102   1 88.477427909 91.599565842 65.722816334
   103   1 95.770855030 8.832703006 68.068179087
   104   1 40.662337189 10.262335835 23.985799205
   105   1 6.451801566 30.633461342 53.099601904
   106   1 11.229756483 69.484273315 34.537388404
   107   1 75.973572191 108.199206637 79.701593077
   108   1 18.179311126 61.694192705 4.946169467
