data.82 (written by ASE) 

108 	 atoms 
1  atom types
0.0 10.911092153  xlo xhi
0.0 10.909945606  ylo yhi
0.0 10.911179240  zlo zhi
0.005998722 -0.005015041 -0.005921913  xy xz yz


Atoms 

     1   1 117.807293019 118.697081938 1.736312065
     2   1 2.019058595 118.221302988 39.509724897
     3   1 119.056950098 118.577043071 77.507714356
     4   1 118.701065721 40.472434292 0.737097228
     5   1 117.918078373 40.283660298 38.891803042
     6   1 0.714403231 39.286553602 80.155616240
     7   1 0.110854507 79.093532949 1.896780719
     8   1 118.489648718 79.118119357 39.055956652
     9   1 119.009744436 76.779326080 78.155088564
    10   1 39.489846588 118.088399317 117.711755900
    11   1 39.815314382 0.792500401 39.878460998
    12   1 39.129777293 117.738871967 81.205929304
    13   1 40.377945956 39.554828253 118.995210773
    14   1 41.126994848 40.322882988 40.749790770
    15   1 39.997669819 41.757466282 80.752085305
    16   1 38.136031753 80.345794458 117.729164606
    17   1 39.778342690 78.864152209 38.989171729
    18   1 39.765511837 80.357109970 79.335582179
    19   1 80.020083228 0.259103537 0.252499787
    20   1 79.576969212 0.684735579 40.181570128
    21   1 80.639690699 -0.030026284 78.789665125
    22   1 79.553936735 37.143204947 118.811599398
    23   1 78.796564277 39.707993134 38.770327529
    24   1 78.934589663 41.086454010 79.323170055
    25   1 80.033566998 80.887286343 118.096776527
    26   1 78.400358804 80.416040681 40.056586801
    27   1 81.209454941 79.313886539 79.029108253
    28   1 40.633067223 18.586423899 17.951816634
    29   1 39.644495686 21.028652002 62.627552059
    30   1 40.100295864 18.685474336 98.620245039
    31   1 40.742631294 60.071779126 18.685131126
    32   1 41.075915162 59.393858969 60.248575832
    33   1 40.574448926 60.069503190 100.294329130
    34   1 40.464895534 100.004988616 18.605733004
    35   1 39.422078588 98.634962775 60.541990728
    36   1 37.059037957 97.839792258 99.051460624
    37   1 78.741541031 20.335437336 19.646893386
    38   1 78.248003791 19.096962342 60.657779230
    39   1 81.438010384 20.425933446 98.312785875
    40   1 78.781289844 60.847891460 19.457386521
    41   1 77.551102695 59.698655030 58.772045850
    42   1 79.509356360 59.590180462 100.077635673
    43   1 79.503438553 100.338370401 19.944703234
    44   1 77.981878772 100.298118973 60.992794386
    45   1 82.257381708 98.728611025 98.749356077
    46   1 118.709901303 21.099509053 20.673281615
    47   1 0.002324152 20.067853307 58.047126532
    48   1 118.262759892 21.514506855 98.398608306
    49   1 0.339574625 59.316674277 20.874938193
    50   1 2.161707063 58.298827932 58.025272880
    51   1 0.262788880 58.215597766 100.188380600
    52   1 118.800640585 99.861848307 19.173289126
    53   1 117.786597282 98.122065156 57.710748179
    54   1 0.147519448 98.433806153 99.580987673
    55   1 21.097426116 39.099315551 20.519919089
    56   1 20.426524663 38.780898637 58.497015451
    57   1 20.205627372 40.511849711 98.296935459
    58   1 19.277718002 79.785578782 20.714049610
    59   1 20.137386275 80.537588572 59.096906673
    60   1 18.154226790 78.044956420 100.053916663
    61   1 19.415121521 0.016048399 18.678466704
    62   1 19.495441597 118.896718929 60.238355222
    63   1 17.122716694 -0.026542917 97.811272360
    64   1 58.008025056 38.058067159 18.328882136
    65   1 59.772036258 38.237571145 61.511526297
    66   1 59.973773410 41.324436363 99.631143469
    67   1 58.754912129 81.378879364 20.263351279
    68   1 57.987873402 79.067124615 58.010847038
    69   1 59.564468228 78.370418627 100.194596055
    70   1 60.652744796 118.696175989 19.853640998
    71   1 58.547835445 118.590420223 62.290441256
    72   1 61.354929263 117.873947609 97.471366990
    73   1 98.202430596 40.644337235 20.423042877
    74   1 99.057854305 39.031428077 58.757182373
    75   1 99.027878945 40.661401040 99.952737138
    76   1 98.591380022 80.623543760 20.465938789
    77   1 97.893325843 78.578364005 58.735428188
    78   1 100.828370263 76.952597898 100.362956573
    79   1 97.566555850 1.393643297 19.816264506
    80   1 99.119867172 118.665276566 59.680070399
    81   1 101.155044563 118.914725126 99.214148205
    82   1 21.480353371 19.298583039 39.624215669
    83   1 18.698457716 20.734201567 79.912164958
    84   1 19.094747099 19.750574677 117.831509676
    85   1 20.481170092 60.281985538 38.413806351
    86   1 19.581668534 59.332892508 79.593182914
    87   1 20.531509113 59.157657974 1.788443361
    88   1 20.527051063 98.783501869 39.500334864
    89   1 19.736167691 98.744936965 78.098914441
    90   1 18.044722621 98.673283950 0.023056652
    91   1 59.679131220 18.187458807 40.297178081
    92   1 60.947465080 20.062192941 81.196273668
    93   1 58.770120707 17.947488289 116.858369063
    94   1 59.666298435 58.573101920 37.124633060
    95   1 59.306294639 61.638321321 78.941021675
    96   1 60.672683348 59.226624630 1.257548390
    97   1 59.062394591 100.722209089 39.944214197
    98   1 59.420942956 98.296321617 79.858867106
    99   1 59.205538786 100.035624889 118.086198383
   100   1 99.301621989 20.033782714 40.336420195
   101   1 99.620792122 21.077470374 78.385778683
   102   1 100.401339012 19.244622339 117.993709498
   103   1 98.948567081 59.573118983 38.965536631
   104   1 99.935918652 58.303513150 78.341388109
   105   1 98.401824745 60.003558092 0.955485037
   106   1 98.341286045 100.274860083 38.932303996
   107   1 101.385323681 97.435824091 79.077625432
   108   1 100.729865004 97.427655966 118.909285558
