data.85 (written by ASE) 

108 	 atoms 
1  atom types
0.0 10.911092153  xlo xhi
0.0 10.909945606  ylo yhi
0.0 10.911179240  zlo zhi
0.005998722 -0.005015041 -0.005921913  xy xz yz


Atoms 

     1   1 1.566705289 117.240293150 0.235449046
     2   1 2.124317068 115.174339643 41.252848658
     3   1 1.891594924 0.030788763 77.926613552
     4   1 118.257176348 38.771824373 116.884970486
     5   1 1.494322999 43.081801099 38.129706580
     6   1 118.132019905 40.909029069 79.022497318
     7   1 115.491668644 80.817992458 0.365593345
     8   1 0.768227940 80.445072627 40.734071960
     9   1 119.026055255 79.919385851 79.450230507
    10   1 38.226706675 116.667819144 2.783566705
    11   1 40.453387051 3.375923365 40.200592437
    12   1 38.571198894 3.232241647 76.635689674
    13   1 40.261766725 38.711327467 0.489924143
    14   1 35.451862672 36.292242847 36.642586748
    15   1 39.626271413 41.346186291 81.487517324
    16   1 43.497482845 81.643397692 2.424650801
    17   1 42.422755938 79.538758625 39.497854875
    18   1 41.149755260 79.252513414 80.262498143
    19   1 80.882661377 118.590441561 0.625544830
    20   1 79.177248523 0.232880620 40.015442733
    21   1 80.993753045 118.244415841 79.383938621
    22   1 79.011634174 37.379866317 117.868218871
    23   1 80.468452952 39.915087017 38.136199550
    24   1 77.412279921 39.186253627 79.424548730
    25   1 80.079489313 82.241595081 0.290140280
    26   1 77.974283821 81.423865916 40.888660030
    27   1 78.048638104 79.314061510 81.338418914
    28   1 38.446440481 18.736569863 19.608540489
    29   1 42.234146259 20.858023603 60.330977996
    30   1 38.377937053 18.287502450 98.520652137
    31   1 38.276807207 58.314840761 19.968474728
    32   1 39.298513296 60.860278211 58.479576725
    33   1 41.453838314 59.026384924 100.232701955
    34   1 42.218979452 101.049682434 21.685710495
    35   1 39.531494684 101.989694289 56.890287922
    36   1 40.685251731 95.799565203 98.808269186
    37   1 79.283630147 18.106913624 19.396530729
    38   1 78.847392211 21.202419916 58.262308515
    39   1 81.135531355 17.463042327 98.667765041
    40   1 76.797477211 59.747052048 17.189968228
    41   1 78.957628700 59.576281892 59.674131694
    42   1 79.856074256 56.867949834 98.919369214
    43   1 76.694167613 98.625586902 22.332166646
    44   1 79.928552783 100.887403447 61.244688311
    45   1 82.257713080 99.759118165 99.458357488
    46   1 116.885967533 20.731908499 19.660576259
    47   1 0.629937596 21.021684834 58.577895793
    48   1 0.386845779 17.685140052 98.021747195
    49   1 116.268549548 60.294679709 18.752920780
    50   1 0.448329765 58.286929821 56.920295134
    51   1 118.348769212 59.965360792 98.309251456
    52   1 117.671620130 97.729680863 18.586600964
    53   1 117.800243569 98.119104665 59.875855962
    54   1 0.335992314 99.265854422 98.172519355
    55   1 19.476549085 42.429146439 17.570371032
    56   1 20.073907230 40.599176899 61.524205431
    57   1 19.286010041 43.549077969 98.700612284
    58   1 20.600850051 76.009376411 21.289210502
    59   1 20.898692222 79.091338305 60.109536842
    60   1 21.942494597 76.583666545 101.144334494
    61   1 20.573204070 117.645896867 20.704699507
    62   1 19.525850554 2.536238798 62.038943424
    63   1 19.742083278 117.910574673 98.409806988
    64   1 61.679288787 38.285745136 20.559687151
    65   1 57.669779407 40.632472510 58.512704141
    66   1 59.143045754 39.981402981 98.193488751
    67   1 60.328954140 78.423992178 21.880505390
    68   1 59.173498898 78.080359590 59.824384028
    69   1 61.429611516 76.606138515 99.434299353
    70   1 58.783433966 0.672099382 18.725019383
    71   1 59.500767757 118.962583291 59.721453669
    72   1 57.326665954 118.487432599 97.433835999
    73   1 98.813390142 41.024830065 21.366890388
    74   1 99.745261745 38.576051723 57.403471752
    75   1 99.045120839 38.029973614 97.066387857
    76   1 95.848013320 79.422371700 20.817274318
    77   1 97.532202899 81.490834105 59.830142378
    78   1 98.888986759 79.686124021 100.227595997
    79   1 100.028284963 118.759899065 19.334529944
    80   1 101.140266827 0.859720177 59.233625556
    81   1 101.928741599 -0.011096428 99.176881558
    82   1 16.748104453 21.368693667 40.291611740
    83   1 20.890076424 22.558247091 79.111674148
    84   1 19.395620806 20.502013094 118.010973045
    85   1 23.033501831 61.746943163 39.118541792
    86   1 22.090071170 60.200225225 80.939010349
    87   1 14.522765498 61.867711386 1.698063386
    88   1 21.798656416 96.396783067 41.019814661
    89   1 20.592913344 97.524605569 78.442891071
    90   1 19.772008422 97.132769471 2.122850456
    91   1 62.182347625 20.427268533 40.148614263
    92   1 58.917595847 19.977698617 83.142829732
    93   1 58.593002427 16.074949216 114.899245556
    94   1 59.738877311 57.241506230 38.956131525
    95   1 60.628872042 57.811711276 78.528896987
    96   1 59.213768434 57.363701209 1.319232787
    97   1 58.640756597 98.810175202 41.233964663
    98   1 60.090891551 100.739635151 77.576519876
    99   1 60.448066042 100.511904962 116.671843084
   100   1 98.041559190 17.864037789 38.807978021
   101   1 98.825239095 20.617107747 76.350455035
   102   1 99.905365882 19.843293289 117.618355069
   103   1 99.490041101 61.179062457 39.124781927
   104   1 97.521478635 60.788591940 80.030880197
   105   1 96.263173188 59.821539401 0.785129298
   106   1 100.385558805 96.365052814 39.611973265
   107   1 100.639820108 100.875214474 79.536125949
   108   1 99.198935488 100.013018818 0.959008232
