data.19 (written by ASE) 

108 	 atoms 
1  atom types
0.0 10.911092153  xlo xhi
0.0 10.909945606  ylo yhi
0.0 10.911179240  zlo zhi
0.005998722 -0.005015041 -0.005921913  xy xz yz


Atoms 

     1   1 118.680517315 118.243342414 0.437041791
     2   1 114.687821239 0.819217943 42.188559568
     3   1 118.209962110 116.761582875 75.867455746
     4   1 117.917021707 39.761517804 118.009529254
     5   1 117.277640137 40.105953131 39.111133762
     6   1 118.833416223 38.270617908 82.424497316
     7   1 2.546014020 79.820998465 0.630439173
     8   1 1.563011902 80.948219440 40.916300316
     9   1 1.727303897 78.143657893 81.141502167
    10   1 39.479722578 0.307857641 0.558264571
    11   1 42.536704779 1.011022013 38.364989270
    12   1 37.871688520 118.896319038 80.493580688
    13   1 38.909838739 38.556078063 118.329011808
    14   1 39.704223415 37.234965214 40.316740299
    15   1 40.903551229 36.994913859 78.647952973
    16   1 39.361682623 78.042610363 118.412267243
    17   1 37.593939714 77.390335621 42.545207569
    18   1 41.758540986 79.471919432 80.628427840
    19   1 81.009118465 0.708957651 118.145424148
    20   1 77.912661881 1.918018757 38.123940056
    21   1 80.748462125 0.439523666 80.783987782
    22   1 80.700755057 40.928354156 116.226146427
    23   1 78.878630762 40.755186664 41.192109373
    24   1 80.343622524 39.854706857 78.331353477
    25   1 77.636174105 76.455538900 117.693237914
    26   1 77.405145910 85.036599973 37.763585041
    27   1 80.377104131 80.233024990 80.321440227
    28   1 38.298974426 20.189140377 19.889977693
    29   1 38.408601509 18.008301150 58.540617843
    30   1 38.588842660 19.568116339 98.075551616
    31   1 39.897851790 57.672137633 18.355732703
    32   1 41.090157497 58.860555013 63.216512758
    33   1 40.354006791 59.091611594 97.601130618
    34   1 42.592791008 96.970485209 19.980044096
    35   1 39.389196097 99.719548424 60.080202974
    36   1 39.203614472 98.634555006 99.452921789
    37   1 79.048897505 24.491317836 18.007745684
    38   1 76.736973902 17.776575487 60.916703487
    39   1 80.561697808 19.934591251 99.407797780
    40   1 79.804244168 58.601532314 19.392060237
    41   1 79.262144704 59.587023321 58.962758488
    42   1 78.546571130 61.260540673 98.659003054
    43   1 80.286904597 100.081805894 16.768484045
    44   1 78.028905300 102.709286874 58.725870743
    45   1 77.998367277 101.449573211 100.709582028
    46   1 118.444846379 16.838839516 20.422249508
    47   1 116.895993105 20.723267722 59.266561918
    48   1 1.438662795 20.729574293 99.622671452
    49   1 118.945300823 59.604166895 21.015635051
    50   1 0.361814169 59.056723620 59.465644705
    51   1 2.572444190 58.189546030 99.502535682
    52   1 0.769661238 98.365056901 17.251463101
    53   1 1.385752210 99.088582113 60.746855953
    54   1 1.115994693 98.015015886 97.048138212
    55   1 20.859524484 38.878332857 19.550097948
    56   1 18.089606252 37.773493436 62.154421235
    57   1 18.827149075 38.870702288 100.279157554
    58   1 20.139963597 79.448734594 23.122889742
    59   1 19.084023457 76.693532123 62.319881760
    60   1 21.860141455 81.108540103 101.022506428
    61   1 20.390562418 118.776862698 21.633027618
    62   1 21.017777745 118.027373293 60.188957955
    63   1 18.424438096 1.244104245 99.281846825
    64   1 59.885326019 38.809349948 19.672324368
    65   1 59.089493010 39.806915566 58.049023053
    66   1 60.246496997 38.535983439 100.526505985
    67   1 60.772808105 79.785245557 20.670095262
    68   1 60.904898557 78.849184196 58.234160007
    69   1 60.101131438 81.359927181 97.290076688
    70   1 60.141749592 117.276691302 19.359620292
    71   1 56.313398387 118.665205737 60.029881662
    72   1 56.477501772 0.388399652 101.073605269
    73   1 99.291261387 39.273932568 20.292207693
    74   1 98.436412171 42.071948631 56.165088588
    75   1 100.349173880 39.615995943 98.621913614
    76   1 98.577182256 78.086391031 20.420652748
    77   1 101.643105932 79.826570369 58.349674233
    78   1 100.115256943 82.025026098 96.675221860
    79   1 99.475050734 117.231231540 19.563244469
    80   1 96.609617183 118.956315388 59.427481678
    81   1 100.474755313 118.903357447 99.763543188
    82   1 17.130833179 20.884271736 40.478613119
    83   1 20.530273575 19.089569194 80.201039819
    84   1 18.232667173 19.403318273 0.602910569
    85   1 19.689046474 56.635596137 39.949799851
    86   1 21.302202330 57.904623300 80.591075983
    87   1 21.527903616 58.312706691 116.887159769
    88   1 20.096382574 101.741585923 39.449401530
    89   1 23.491701174 100.033788822 79.800625159
    90   1 20.946286577 98.887700673 1.248098953
    91   1 61.166533650 21.797296319 40.973856921
    92   1 59.502102795 20.450485655 82.023794094
    93   1 57.581464734 20.130661369 117.769206839
    94   1 58.797138188 59.921527150 38.715931249
    95   1 61.387267641 59.626686383 78.650546277
    96   1 56.358444498 59.465840857 0.870214667
    97   1 58.031989175 100.390649645 40.730265620
    98   1 59.917548211 100.163314770 79.316526390
    99   1 59.369137572 98.997839706 117.628567204
   100   1 98.047239846 18.750840445 38.930953071
   101   1 100.881249078 20.675605313 77.564303298
   102   1 99.362399976 18.693301834 0.422308390
   103   1 98.958955967 60.450230434 36.329681014
   104   1 99.058165716 59.222871245 77.913175281
   105   1 99.609102620 60.846235118 116.373086467
   106   1 100.475325548 99.120756915 37.650335106
   107   1 97.955574555 100.098696424 78.414865535
   108   1 101.331980351 98.550964365 118.594930700
