data.63 (written by ASE) 

108 	 atoms 
1  atom types
0.0 10.911092153  xlo xhi
0.0 10.909945606  ylo yhi
0.0 10.911179240  zlo zhi
0.005998722 -0.005015041 -0.005921913  xy xz yz


Atoms 

     1   1 3.004060965 0.855153299 118.966238872
     2   1 117.783872924 1.320921011 41.083354647
     3   1 118.756293620 1.171264004 76.246719944
     4   1 1.944265977 38.553097314 2.543679895
     5   1 0.729617688 39.926733445 38.169747994
     6   1 0.229995738 39.682622749 77.181779073
     7   1 118.881080907 79.431090726 0.146919478
     8   1 0.811910937 79.766807235 43.019538555
     9   1 0.868380900 77.300657282 81.895488673
    10   1 39.363064590 117.683777186 1.570049276
    11   1 40.200195405 1.319585829 40.911742293
    12   1 38.303296850 0.795023056 75.802448906
    13   1 38.811323141 41.499668002 0.240255555
    14   1 37.694246576 39.998095814 40.242589762
    15   1 40.268914177 40.578702460 83.019741725
    16   1 38.357542193 80.226177217 117.281723502
    17   1 38.504048808 78.395439780 38.302714127
    18   1 39.700599056 78.298161389 77.839746580
    19   1 80.958519279 118.103036605 117.936629057
    20   1 80.580414809 118.205388037 37.252794944
    21   1 78.588138255 118.193110463 78.076908964
    22   1 77.771385680 42.502358183 2.200002412
    23   1 78.927686379 38.883850505 38.771071558
    24   1 79.782964263 39.423429795 79.725727077
    25   1 81.077320021 80.757118403 116.693437405
    26   1 77.091791703 79.067688991 37.233249284
    27   1 79.490810976 75.652289119 78.321490738
    28   1 42.621763891 17.557904042 20.818395208
    29   1 41.928025660 18.785113349 59.339215583
    30   1 39.232983156 17.352555170 100.916486051
    31   1 40.057378736 60.155487753 20.160001066
    32   1 38.087733666 61.449417201 58.122295029
    33   1 39.347868587 59.683203403 99.084444370
    34   1 39.701396570 98.729279653 22.075408591
    35   1 40.376978491 99.420043665 58.825322488
    36   1 38.366545871 99.060241454 100.244902413
    37   1 80.736539163 21.118331281 17.792836402
    38   1 76.610022788 20.494241935 62.589421944
    39   1 80.636997387 18.581470383 99.669701343
    40   1 81.435648301 60.556042823 20.105525230
    41   1 78.421415410 58.274991370 60.714423858
    42   1 79.776020685 60.356407234 100.642245793
    43   1 80.832319480 97.836879052 17.792361604
    44   1 80.307901525 96.842762374 57.933202932
    45   1 80.171199715 99.839302463 100.189668081
    46   1 118.925800068 19.179506265 19.320463287
    47   1 114.587401427 22.628565459 58.764896574
    48   1 118.395131450 18.564562874 95.513331348
    49   1 3.763870934 60.701242495 22.103510361
    50   1 118.585545121 58.489918180 61.876860430
    51   1 118.723636897 59.293871870 100.390265828
    52   1 1.650119016 99.886682707 21.005546952
    53   1 114.868732367 97.035521640 63.973003952
    54   1 118.893998013 99.732965327 96.107788061
    55   1 20.508166824 40.752888523 18.670863454
    56   1 19.156251731 40.918972733 60.481899559
    57   1 19.900437003 38.532324189 100.689464391
    58   1 20.421501948 78.282596519 17.259755152
    59   1 19.002571856 81.466919091 61.347993354
    60   1 21.597674197 79.268402385 97.041632899
    61   1 21.441697163 1.295061663 21.840457999
    62   1 20.363007029 0.619964655 56.447760271
    63   1 19.177072073 1.996638654 100.073633771
    64   1 57.606377723 42.154191343 22.619924517
    65   1 57.285510180 40.364839853 58.842924051
    66   1 62.062558758 42.321626833 98.346361448
    67   1 59.869707766 79.836199882 17.360548894
    68   1 59.662628569 82.611843886 57.829692449
    69   1 60.088810965 77.344951731 97.655374759
    70   1 61.461814821 1.321420299 17.793983004
    71   1 60.650264584 116.818054279 58.883711960
    72   1 58.095338124 117.106879331 98.895855242
    73   1 100.355191324 40.699040253 19.636744850
    74   1 97.816836384 39.019462632 57.995576828
    75   1 97.482083098 40.543665315 99.986132248
    76   1 101.393283076 82.262565642 20.206962660
    77   1 97.788957650 78.393240542 59.241555257
    78   1 98.702330499 78.024156697 98.024897604
    79   1 98.017970604 0.658889697 19.159397727
    80   1 95.418590487 116.237891806 60.246332116
    81   1 100.477563869 118.507876727 98.144267591
    82   1 19.708920497 21.433916423 39.421717994
    83   1 20.639081828 20.854928247 77.438221912
    84   1 21.769194963 20.137969533 3.202807351
    85   1 18.062791460 59.740915795 41.435249263
    86   1 20.968676393 55.151453308 81.392526448
    87   1 20.695714775 60.746482707 117.045515816
    88   1 18.656138185 97.849203685 40.919513419
    89   1 19.251186668 100.060282079 78.576424732
    90   1 20.026323963 99.542316995 2.402869462
    91   1 63.244170310 20.612772907 39.817889382
    92   1 59.601369756 18.264113297 83.060107489
    93   1 62.667315605 19.543646040 117.503245446
    94   1 58.311974847 60.372399077 42.447770112
    95   1 57.166323401 58.129138030 75.491706055
    96   1 58.767525823 58.673471601 118.651964049
    97   1 61.675941764 100.145149352 37.783094777
    98   1 59.710814543 97.804231738 77.945330036
    99   1 60.614096980 97.967794702 0.712005373
   100   1 94.519171249 19.507720434 40.926910483
   101   1 96.522034715 18.152720716 77.766138384
   102   1 98.830100898 20.774921477 118.267663277
   103   1 97.422782798 58.789374885 39.973620201
   104   1 98.621519463 58.773575407 79.611088853
   105   1 101.529730177 59.079010296 1.734827596
   106   1 103.631731796 99.454518715 40.043589541
   107   1 95.567590375 96.441785009 79.600032367
   108   1 102.328898934 100.377014053 117.829989737
