data.84 (written by ASE) 

108 	 atoms 
1  atom types
0.0 10.911092153  xlo xhi
0.0 10.909945606  ylo yhi
0.0 10.911179240  zlo zhi
0.005998722 -0.005015041 -0.005921913  xy xz yz


Atoms 

     1   1 1.138674620 118.052914073 116.643274567
     2   1 2.279814170 1.332499786 39.048471621
     3   1 1.795079393 3.152118210 80.397711920
     4   1 116.733401627 38.409271558 118.414399325
     5   1 116.647651907 37.973465062 39.115199480
     6   1 0.817145311 40.691885736 80.408867373
     7   1 0.235928624 78.721295525 2.409689914
     8   1 0.209457950 80.449670630 41.911768397
     9   1 118.035848068 81.545901074 74.382754293
    10   1 38.815136923 118.026686491 118.693817151
    11   1 39.755077615 118.950666539 37.597243408
    12   1 39.954661839 113.882359029 80.843814083
    13   1 40.915503610 40.430142281 0.148197256
    14   1 41.481780875 41.100775368 42.847767031
    15   1 39.691187560 40.142101805 79.309932391
    16   1 37.271484406 78.170047837 0.718117541
    17   1 41.327482606 77.208679362 40.391216395
    18   1 41.789594833 79.722168124 77.896945463
    19   1 80.357617560 118.781148607 0.358406901
    20   1 76.177965696 114.677986913 38.202019400
    21   1 76.927871845 117.440857375 79.837100130
    22   1 75.972347950 39.141782265 -0.047345242
    23   1 77.658759669 37.839201722 38.239812959
    24   1 80.866055403 38.213981680 78.219735787
    25   1 80.775934617 77.518436488 118.155051736
    26   1 80.044270765 82.676970474 39.153724432
    27   1 80.129164693 78.422198071 78.478036085
    28   1 37.182022870 22.053948627 23.592647850
    29   1 40.586300816 19.645803945 57.790951559
    30   1 39.534017639 22.430309468 99.696624802
    31   1 41.439675987 60.194828657 18.729865376
    32   1 42.421815071 58.999245643 59.004892458
    33   1 42.995393829 60.317165553 97.722710436
    34   1 36.380295378 96.593744939 22.210243409
    35   1 38.608350965 100.560721045 57.650217391
    36   1 40.888103938 98.495794009 99.846648083
    37   1 79.775768310 18.815550362 20.364779903
    38   1 79.676383976 17.982592429 60.073768404
    39   1 76.907479985 19.324341216 99.844831042
    40   1 79.135685161 60.673900134 21.163954286
    41   1 79.983128385 60.889007509 58.179537235
    42   1 80.001377218 57.697836153 99.739847198
    43   1 78.691219033 97.981982104 17.775289864
    44   1 82.336898185 98.950223669 60.398874168
    45   1 76.712431418 99.871507388 100.942231738
    46   1 0.048719378 18.876659293 18.960245216
    47   1 0.599759662 22.787390063 62.414412896
    48   1 117.912104133 21.109095590 97.531801536
    49   1 0.558125998 58.873634979 23.764990108
    50   1 118.142353759 61.769019006 58.753337210
    51   1 117.112529328 57.799704366 97.800730039
    52   1 1.225150719 98.226716737 20.817347343
    53   1 119.075890635 104.469333024 58.734265263
    54   1 2.538793577 96.269124811 98.811023025
    55   1 15.810978456 39.177175237 18.516488182
    56   1 19.987809550 42.639239129 60.755241150
    57   1 19.713206249 39.145848552 99.482845403
    58   1 17.669873945 77.785762453 22.771575618
    59   1 21.326158961 77.377399746 58.703887691
    60   1 24.075060830 80.087799149 97.890093812
    61   1 18.207076917 1.504670145 17.889006652
    62   1 20.331616639 2.026488200 57.137523647
    63   1 19.989017129 0.757526101 97.081753642
    64   1 58.014400484 39.851929693 19.629640226
    65   1 62.977332461 38.885617906 60.077127056
    66   1 58.694392189 39.075668641 97.205087378
    67   1 59.982347852 78.955007728 16.769039704
    68   1 60.865265857 81.775437481 60.030898278
    69   1 61.122682320 79.414159810 101.520882528
    70   1 58.412421293 0.264938212 18.889347900
    71   1 58.498171647 116.642262556 59.740674281
    72   1 58.062863114 118.502990661 101.664185101
    73   1 97.985074481 41.599095605 17.710936324
    74   1 99.005042323 41.187905843 58.632815972
    75   1 99.378649610 42.195750645 99.123605209
    76   1 100.536567924 80.252831907 23.212055183
    77   1 97.306208637 78.810242153 58.929391829
    78   1 99.226239258 80.320273286 97.643867528
    79   1 100.515464349 118.572956904 18.586154300
    80   1 99.265509670 1.682144084 58.452095669
    81   1 99.788371278 0.521873773 99.016972590
    82   1 19.866894911 23.001316176 40.858131552
    83   1 23.597593976 17.765614564 78.699913231
    84   1 19.212329737 19.255497996 0.801717500
    85   1 21.293395285 58.779423927 39.886467559
    86   1 22.475444858 58.993619062 80.118016625
    87   1 17.820778661 58.975102179 118.402392435
    88   1 18.949748422 98.421283876 40.412851320
    89   1 18.468279635 96.488939026 77.590575639
    90   1 18.549668884 97.637992263 1.331073223
    91   1 62.324021873 16.039958186 42.083648893
    92   1 58.364647577 18.727584876 81.340930398
    93   1 59.286779557 19.218332076 1.952664791
    94   1 60.942005140 58.127276488 40.323383313
    95   1 60.834771225 57.883364164 75.460985097
    96   1 56.829461990 59.151155681 1.049106771
    97   1 56.796513672 98.362177299 39.663188036
    98   1 61.702907085 97.947965282 80.890203718
    99   1 58.288232242 99.298342466 0.153394919
   100   1 97.701127760 20.322636813 37.310651454
   101   1 98.713787086 23.225458687 80.306201391
   102   1 96.536427762 19.486839931 1.106426525
   103   1 99.138013874 59.949597265 38.753210477
   104   1 98.145840548 59.189799271 79.196774435
   105   1 100.572875516 61.292602565 0.109220122
   106   1 100.266655256 98.541058435 40.351123874
   107   1 100.651352583 104.376228025 79.397071205
   108   1 102.757531267 99.380927630 116.641938095
