data.80 (written by ASE) 

108 	 atoms 
1  atom types
0.0 10.911092153  xlo xhi
0.0 10.909945606  ylo yhi
0.0 10.911179240  zlo zhi
0.005998722 -0.005015041 -0.005921913  xy xz yz


Atoms 

     1   1 21.084453352 37.803370388 85.618175787
     2   1 9.053192620 84.407135680 82.594693536
     3   1 26.774425850 65.588897087 54.901748324
     4   1 23.386054335 25.203202971 17.376957175
     5   1 81.330299469 52.334338980 53.294853060
     6   1 27.094603814 70.008232516 81.464154593
     7   1 58.373908188 7.597668958 44.622438239
     8   1 88.826513865 74.580163559 57.579918698
     9   1 74.032860758 65.243237820 74.429682301
    10   1 13.590452302 70.136314400 102.720562319
    11   1 52.371167714 11.409147870 69.624189738
    12   1 83.092454682 4.930640855 52.942242235
    13   1 77.495415009 113.919439172 107.922351234
    14   1 2.885753268 106.239253229 79.805777035
    15   1 117.290194547 5.537066350 112.843830739
    16   1 60.470400532 96.293197182 110.819650935
    17   1 21.147471774 1.489561755 5.812274301
    18   1 60.754217720 87.063134588 85.604646956
    19   1 101.368021874 48.051251194 44.128086450
    20   1 59.735726451 113.357344186 83.232631532
    21   1 39.978153820 86.935034657 45.520992915
    22   1 10.005283832 5.605878207 63.911751042
    23   1 102.709818399 79.997060656 7.389540006
    24   1 30.777016972 116.827341487 52.737355648
    25   1 67.527342428 117.607045343 16.846987554
    26   1 65.805006623 65.116940482 99.668176511
    27   1 11.874377846 95.808500824 109.099897577
    28   1 112.737867498 24.457994267 85.328038494
    29   1 98.012602433 114.117206044 29.512908500
    30   1 18.527157935 16.740670373 42.301385441
    31   1 84.985423780 39.297366208 94.445359366
    32   1 103.284011053 54.125430259 113.212855684
    33   1 44.498340292 40.491554408 82.837954751
    34   1 35.955183004 91.041611734 93.932533095
    35   1 81.377346229 49.189149019 114.963312051
    36   1 29.409302184 58.849201178 13.299533049
    37   1 42.825501718 24.916623879 44.063135632
    38   1 89.357594148 67.460034764 91.900558012
    39   1 104.259607857 105.174339129 53.233501948
    40   1 59.279178156 10.230007374 117.324727148
    41   1 95.966975009 38.610182813 16.886061596
    42   1 77.493304430 25.883562751 118.474232752
    43   1 64.402533335 19.380954600 21.851139762
    44   1 36.690873699 118.185406301 104.333842503
    45   1 89.974641626 24.107071814 71.569047768
    46   1 22.122936122 21.825952988 111.424849713
    47   1 77.789786018 75.846052569 9.042855019
    48   1 111.732320435 9.502158537 45.171195513
    49   1 34.273366210 53.331913918 105.470792103
    50   1 13.410550464 118.378518515 94.591074306
    51   1 97.123734202 49.727381317 70.895875185
    52   1 15.089200949 98.299166632 61.239106874
    53   1 68.187161748 40.585409946 77.898307434
    54   1 93.796680810 8.600848132 6.425058283
    55   1 28.576672992 104.066965907 26.380230292
    56   1 113.452313302 31.572311472 1.186266144
    57   1 56.204024999 107.479358192 33.159962064
    58   1 1.845861689 101.851293860 14.512506304
    59   1 102.908487625 87.873729840 74.817844135
    60   1 52.036034489 54.092372857 57.230186481
    61   1 113.785400939 48.733256376 93.945906279
    62   1 12.266609374 47.171958794 0.999417708
    63   1 105.490916414 102.743765172 112.090525796
    64   1 35.306383959 110.875194403 75.488494229
    65   1 100.874962030 88.351851416 30.315731873
    66   1 29.559300337 19.310957714 70.334948001
    67   1 4.704114355 110.829484474 36.677592037
    68   1 87.420098276 64.715583883 32.775342824
    69   1 60.125226064 41.278453696 102.333382010
    70   1 118.118811963 14.306762826 18.919409286
    71   1 3.480351328 55.760190540 72.119514189
    72   1 27.631043330 42.788986130 59.857433755
    73   1 2.309789479 60.472188153 47.190486818
    74   1 111.590413123 63.955765498 24.131459244
    75   1 106.209079086 116.785588284 91.947007778
    76   1 78.902863453 97.940192571 40.823078957
    77   1 57.541565798 53.045051416 9.647300627
    78   1 104.393475060 4.634096331 67.505988532
    79   1 118.046774595 83.965289669 51.705735127
    80   1 58.688256061 104.961632236 59.604178691
    81   1 68.719504156 31.770470263 55.613354293
    82   1 64.077557766 63.411624308 34.127920240
    83   1 95.065206249 26.353710901 49.407076356
    84   1 20.815672754 41.286937645 36.041453612
    85   1 43.662409687 65.989766634 34.091497772
    86   1 41.881949024 104.486437884 6.822752768
    87   1 91.231492983 15.098475614 101.040364280
    88   1 41.771237155 76.407098948 111.764558980
    89   1 55.623970647 81.737968650 14.369408394
    90   1 110.378434526 82.064733133 101.807654648
    91   1 45.200219188 19.777540218 96.876622833
    92   1 47.069068770 36.585343727 26.450011437
    93   1 42.219100060 34.347866781 116.602898529
    94   1 50.145696789 62.591406879 78.433855179
    95   1 82.582973871 98.126307765 15.900944600
    96   1 68.477189143 18.216826689 88.603484546
    97   1 83.633811027 92.491447488 90.919081515
    98   1 60.961696144 77.287612991 53.953687341
    99   1 88.387091984 16.237090766 29.100174658
   100   1 73.197836408 39.263131749 31.639795542
   101   1 40.034980678 87.156466580 69.567690813
   102   1 78.467178202 94.340896705 66.339414264
   103   1 2.696606940 34.546066193 58.450078270
   104   1 37.687009162 8.443769618 24.778789706
   105   1 117.421925508 38.107022015 32.519785762
   106   1 16.493052275 77.541819274 30.991128111
   107   1 83.100275811 116.366381025 81.848760197
   108   1 18.177129025 75.886082160 3.492800387
