data.53 (written by ASE) 

108 	 atoms 
1  atom types
0.0 10.911092153  xlo xhi
0.0 10.909945606  ylo yhi
0.0 10.911179240  zlo zhi
0.005998722 -0.005015041 -0.005921913  xy xz yz


Atoms 

     1   1 1.049970728 117.407240052 118.749965517
     2   1 118.816682336 0.731808039 39.857540665
     3   1 118.426601964 0.486124898 79.354428386
     4   1 0.369217392 39.485154315 0.867739663
     5   1 118.975445605 39.300274401 41.058510728
     6   1 0.525634487 40.499250564 76.991428370
     7   1 118.142956044 80.747307142 2.527977840
     8   1 1.136534969 79.529892664 37.850201789
     9   1 0.166040094 78.037442505 78.589763872
    10   1 40.495826624 118.691255935 118.396597293
    11   1 39.455218469 118.807808086 41.593023398
    12   1 39.287241538 0.661818616 78.897348734
    13   1 39.968958480 38.884724676 118.523713991
    14   1 39.760497746 40.134966561 39.822734521
    15   1 40.169429533 40.310221328 79.430580029
    16   1 39.014019213 80.114973938 117.998900313
    17   1 39.241848927 81.215633255 39.015524903
    18   1 40.327763741 78.296927234 81.210229293
    19   1 80.153860288 118.619455124 118.886053739
    20   1 79.231409058 0.156371018 40.627872109
    21   1 79.818256356 118.824593692 78.650911770
    22   1 80.012700766 39.678638105 0.528512642
    23   1 79.658524570 38.853144624 40.300593664
    24   1 78.909175950 39.993280427 79.160194909
    25   1 79.488456809 78.755763161 1.405575267
    26   1 77.777354877 80.114758187 38.568268812
    27   1 79.755333207 78.653329704 79.828152627
    28   1 38.758617969 20.047090816 19.325052258
    29   1 39.314840685 20.210258927 60.149090268
    30   1 39.869300157 18.075487563 98.791524363
    31   1 39.894830602 59.946319654 20.010419578
    32   1 39.503754696 60.184710351 58.426512814
    33   1 38.879102096 60.275918062 99.595436226
    34   1 41.914060147 99.008449407 17.374710335
    35   1 40.175290730 97.833824519 61.799287339
    36   1 39.072758971 101.415804518 98.890729567
    37   1 80.983389128 18.806056275 19.655145552
    38   1 77.362374047 21.380099492 60.944819675
    39   1 81.056223144 19.871115827 99.031990174
    40   1 78.122902538 58.539211878 19.958491455
    41   1 78.223672286 58.881059957 60.086653333
    42   1 79.218043216 59.731084404 101.437525652
    43   1 79.283914993 99.794214429 19.660917937
    44   1 79.950902321 98.407286854 58.746012823
    45   1 80.101917065 99.072279435 99.118393742
    46   1 0.726049993 19.060898577 20.083225617
    47   1 0.117497281 20.383777831 58.435731910
    48   1 0.279457461 20.631703750 97.047052126
    49   1 119.010325459 58.770605421 21.045344645
    50   1 117.952983986 60.068651972 58.220390475
    51   1 119.046928092 60.500104382 100.803174760
    52   1 0.180736258 99.773983203 20.312676014
    53   1 1.686681937 99.778868453 57.804880831
    54   1 118.483489889 98.365316522 98.575037324
    55   1 20.888708894 38.464287046 20.337492914
    56   1 21.297917005 40.999076205 58.511126572
    57   1 20.603819283 40.762940190 99.497154753
    58   1 20.809872621 79.721898564 19.619037388
    59   1 19.887405404 78.457127039 58.202032349
    60   1 18.489484564 78.344610540 99.717749216
    61   1 19.587927687 0.613843689 21.013065171
    62   1 19.771547859 117.778429146 58.543032680
    63   1 17.432186691 0.204727661 98.247455883
    64   1 59.370225593 37.854426061 20.934930464
    65   1 57.525522763 39.684310535 58.501141380
    66   1 60.330149304 41.015625723 99.293629683
    67   1 59.664548705 78.177554942 18.905194684
    68   1 59.569162015 79.924470194 58.678261238
    69   1 60.434324884 78.806820104 100.323847175
    70   1 57.912062127 0.489862633 22.246058750
    71   1 59.087759715 118.617530577 59.709925326
    72   1 61.061071735 117.912806760 98.683329626
    73   1 99.692552051 38.198616167 20.123431205
    74   1 98.219142291 40.106077652 59.496666094
    75   1 98.546507722 41.523780114 97.705826205
    76   1 97.953635652 78.773778314 20.407827651
    77   1 98.872760929 79.175130375 58.360349085
    78   1 100.088075475 78.019476100 98.315230709
    79   1 98.815546087 1.114669407 19.111995713
    80   1 99.032464457 118.278141061 59.571386382
    81   1 100.376048746 118.770930219 97.917493092
    82   1 20.505372704 19.090771738 40.045036466
    83   1 19.822942476 19.581822896 79.400341983
    84   1 20.879574633 20.726626676 118.870094730
    85   1 19.870170462 59.278553157 38.918110122
    86   1 19.945795574 59.470376880 78.481335607
    87   1 19.321175953 60.301377915 0.490097427
    88   1 20.649541868 99.373860726 38.869211222
    89   1 17.518681330 97.294414102 79.088748141
    90   1 19.625184845 98.092951703 117.054556680
    91   1 59.227184708 20.282361915 39.145832333
    92   1 59.369984476 20.064487958 80.257305815
    93   1 60.259446617 19.541270482 118.371303246
    94   1 59.783507952 61.002095650 39.953765495
    95   1 59.492056298 60.377077747 80.759214977
    96   1 58.059264918 59.781283724 1.269044449
    97   1 60.301955874 99.749434848 39.445574912
    98   1 60.617610285 97.879774639 79.991288070
    99   1 60.283523888 99.977676882 118.272172605
   100   1 97.729200544 19.423359307 40.654276274
   101   1 99.454033613 19.843570040 78.729518782
   102   1 100.656529594 19.855311208 118.283275941
   103   1 98.365121363 58.906363578 39.123555671
   104   1 99.001076636 60.019966038 78.403985048
   105   1 98.860949664 59.422721224 2.025525663
   106   1 99.834472605 98.605242661 40.298189698
   107   1 99.704876914 98.339415256 78.970759149
   108   1 100.177839868 99.049952118 0.338096176
