data.20 (written by ASE) 

108 	 atoms 
1  atom types
0.0 10.911092153  xlo xhi
0.0 10.909945606  ylo yhi
0.0 10.911179240  zlo zhi
0.005998722 -0.005015041 -0.005921913  xy xz yz


Atoms 

     1   1 11.645379928 39.159205795 104.259294232
     2   1 11.109732659 81.056933646 78.120095398
     3   1 28.487422661 69.690097851 60.146627497
     4   1 19.144040866 20.511433671 20.825321765
     5   1 84.120664312 73.069867112 51.811887028
     6   1 11.578503509 54.017220782 71.570161691
     7   1 55.670250897 12.843121230 54.826722216
     8   1 97.699093880 75.228528820 72.884022019
     9   1 83.724909611 55.682011835 89.843001175
    10   1 15.468926716 65.036557385 98.645230208
    11   1 67.985897246 34.909074506 75.599812457
    12   1 79.256277422 6.384494744 39.235719027
    13   1 73.619178313 108.894155709 96.459239909
    14   1 7.893677990 110.746603266 104.076100100
    15   1 113.657327625 17.555716282 104.019593204
    16   1 72.349219186 90.837749837 117.341061198
    17   1 23.234864227 115.325961877 9.925008277
    18   1 59.193527626 85.112704808 87.241269305
    19   1 104.541007242 59.916890474 42.434269502
    20   1 51.723670283 106.509649668 93.243763134
    21   1 35.454441756 108.973495196 53.131034808
    22   1 4.156967900 116.638924056 54.707175797
    23   1 1.321447814 79.643737112 9.019986262
    24   1 21.100111330 5.779316258 37.565546532
    25   1 73.321710055 14.320577194 14.300584149
    26   1 60.108418525 66.801242795 105.676621549
    27   1 2.959319237 100.083644235 4.389689695
    28   1 107.935322175 3.949666450 74.570336997
    29   1 97.293189567 104.854468355 29.851377168
    30   1 22.250850610 16.955830194 56.850908183
    31   1 75.002525955 35.670370366 99.066083811
    32   1 110.278655822 54.591439436 110.984986679
    33   1 26.809654869 41.175905383 86.445781594
    34   1 18.211544583 87.452585981 102.499865922
    35   1 56.687379629 43.234048839 116.838583035
    36   1 44.746704068 75.847796043 22.497906273
    37   1 40.458269931 28.669837957 33.868086506
    38   1 112.821918498 62.724088392 88.803015518
    39   1 107.538731578 91.374935083 55.026479166
    40   1 59.761049996 109.930597655 117.375061738
    41   1 101.766694387 52.927154756 18.530238005
    42   1 67.180895064 10.961814947 107.400183022
    43   1 64.937037178 32.720899089 40.921433100
    44   1 31.609229044 112.186187782 104.818386469
    45   1 83.363639204 25.135977923 59.876396920
    46   1 22.061291994 15.480234399 113.029475482
    47   1 90.088607711 72.706740065 118.656622368
    48   1 105.763717163 10.509542836 33.437901838
    49   1 31.276640170 41.715620645 116.184504089
    50   1 17.245040859 13.276189366 89.607739763
    51   1 108.136679325 49.342097453 66.498294222
    52   1 16.312038531 92.727594395 57.369461796
    53   1 63.706384867 63.013553118 74.344681237
    54   1 95.390191273 5.018153592 0.695376758
    55   1 31.967480083 99.265314344 29.208328494
    56   1 97.597791155 37.369549013 110.560969355
    57   1 57.190905029 110.071893105 39.501288484
    58   1 22.481674120 87.162499175 8.231021855
    59   1 114.518271896 100.374255977 78.392221635
    60   1 41.322115542 56.745474934 41.453685233
    61   1 107.168192570 38.733003336 89.066500425
    62   1 118.454281272 32.715387884 9.626642591
    63   1 98.615941359 100.682629476 5.409024974
    64   1 20.394767884 107.973497406 81.519139860
    65   1 114.925293144 85.395738122 32.437535855
    66   1 36.901218545 20.150686949 76.266426122
    67   1 7.384340240 107.362378171 29.388576883
    68   1 92.636959240 80.456479917 25.856665123
    69   1 53.437009856 48.793382352 91.282162129
    70   1 115.264687825 8.267438362 10.620352185
    71   1 5.790714637 29.018050554 76.963212008
    72   1 45.594087324 38.780222646 62.154924409
    73   1 18.662241199 43.284625555 48.651657345
    74   1 5.556141793 56.256080021 25.583017020
    75   1 98.197210682 106.355558825 101.267904072
    76   1 82.085467458 94.591097586 45.274140531
    77   1 68.181981056 70.442148115 11.828204324
    78   1 95.989216679 113.014581719 55.096717771
    79   1 6.646834967 69.208363872 53.626588230
    80   1 59.715275015 107.550612405 64.600061570
    81   1 71.386867868 52.278829773 56.224486321
    82   1 64.909965966 85.676704971 31.443533312
    83   1 93.632875471 37.874260490 45.138167598
    84   1 26.753407466 43.721410712 19.783226127
    85   1 42.686735674 86.953540646 44.977685974
    86   1 38.538085294 87.886948010 98.930340827
    87   1 91.994629740 18.398287606 90.240162403
    88   1 39.337833734 65.847298295 118.073876811
    89   1 44.303991265 89.865801020 2.816506339
    90   1 113.102777797 87.366807805 101.109918390
    91   1 43.203298629 19.697669725 98.637437312
    92   1 51.200948018 53.184026513 19.385883287
    93   1 46.560729856 23.265403634 6.707279344
    94   1 34.546301550 68.618277612 83.581355707
    95   1 73.375929901 105.927702348 19.382672239
    96   1 61.851397401 13.683439917 83.357407242
    97   1 86.722958281 82.705526599 94.219094547
    98   1 60.507696485 81.732534389 57.716918094
    99   1 94.731348361 26.751512194 20.872317695
   100   1 76.715330083 54.818269480 29.247949049
   101   1 40.783055710 88.253678168 72.817396707
   102   1 84.955791313 94.975748354 73.207634844
   103   1 109.902416091 23.951606672 57.124223015
   104   1 45.640892129 0.066921765 21.000791973
   105   1 118.272508689 35.701878664 33.335980152
   106   1 18.831879749 75.844976240 32.518195914
   107   1 80.682942263 117.536106699 76.057626317
   108   1 12.153618908 60.468004509 2.264941063
