data.36 (written by ASE) 

108 	 atoms 
1  atom types
0.0 10.911092153  xlo xhi
0.0 10.909945606  ylo yhi
0.0 10.911179240  zlo zhi
0.005998722 -0.005015041 -0.005921913  xy xz yz


Atoms 

     1   1 0.264001716 1.655752119 0.715088956
     2   1 118.739186775 118.837003888 39.775521583
     3   1 117.676360925 0.417294284 78.099507270
     4   1 0.235846936 39.570369358 0.882874564
     5   1 1.524148831 40.702631535 39.556057695
     6   1 0.709984596 40.878597033 78.292991153
     7   1 118.239507497 80.665059251 0.774077470
     8   1 118.821914195 80.208170003 38.832343812
     9   1 0.053096621 77.860408513 80.419768775
    10   1 38.557034275 0.879268483 116.640955222
    11   1 41.024538810 116.772815364 40.916466254
    12   1 38.460325200 117.597743137 80.918322424
    13   1 39.509879014 38.618194816 117.918561963
    14   1 38.216074360 39.212474086 38.569594015
    15   1 40.315658614 40.807611266 82.105500952
    16   1 39.950019002 80.451777105 118.516647626
    17   1 40.206305726 80.774290818 39.217712524
    18   1 40.005928325 78.897329319 79.619016457
    19   1 80.020170422 0.362063874 117.797834530
    20   1 77.879259507 118.925618770 40.763589910
    21   1 80.802143209 117.852384952 79.084104750
    22   1 78.472619929 37.792967061 -0.042881434
    23   1 79.569727923 38.036078416 37.789756868
    24   1 79.452424961 40.909621216 79.247309765
    25   1 80.110454110 79.348285092 0.078589498
    26   1 78.253915753 79.327871186 40.323091633
    27   1 80.298077885 77.988374374 79.301212753
    28   1 39.264773052 20.118588593 19.613248187
    29   1 39.737576432 19.652337046 60.666606491
    30   1 39.576742878 19.809069010 97.339809593
    31   1 38.214625997 58.543422758 18.779150860
    32   1 40.050547369 63.301833525 59.436765736
    33   1 38.491339263 59.543195777 103.310252513
    34   1 41.246268579 98.966041397 19.411931783
    35   1 40.159885964 98.106916960 59.962384192
    36   1 40.788836052 98.528996059 98.323382295
    37   1 79.839871426 18.630140236 18.767387114
    38   1 80.426621340 20.493740292 60.443389969
    39   1 80.350888728 20.125354942 97.720441635
    40   1 78.178500133 58.616219872 20.401542372
    41   1 78.125117990 58.467170828 59.050202675
    42   1 79.335336681 59.192343709 100.606292277
    43   1 79.920708839 100.135079387 21.028487556
    44   1 79.443487801 98.506656488 60.314011654
    45   1 81.119571183 100.119954357 99.556666119
    46   1 0.213045566 19.524544117 19.140065636
    47   1 0.272060392 19.390768271 57.280544363
    48   1 117.683363609 21.935868647 98.825096724
    49   1 118.062501919 58.590053290 21.243150399
    50   1 1.577934333 60.388068749 58.753731280
    51   1 0.968449395 59.482922334 100.543696706
    52   1 118.451304668 100.199639177 20.064265079
    53   1 0.449369012 97.796694307 59.814129224
    54   1 118.775092141 98.247090597 98.195781078
    55   1 19.645605904 37.562597220 19.134205223
    56   1 22.589187983 40.437562110 59.945316980
    57   1 19.035976177 40.702874227 99.199321030
    58   1 18.632746930 80.729941831 20.268691529
    59   1 19.737192077 79.980080979 58.412476563
    60   1 19.347586465 78.273128142 101.155682577
    61   1 21.491982005 118.989803713 19.655755565
    62   1 19.704939875 117.879239924 59.429483213
    63   1 17.030396678 0.484370935 98.376305051
    64   1 58.649320400 37.911063738 19.873628328
    65   1 57.636120918 39.511447140 58.348795465
    66   1 60.527985985 40.486427116 98.864279748
    67   1 59.762073657 80.114952710 19.349359951
    68   1 60.320474027 82.056526476 59.689073655
    69   1 60.173742329 78.298114862 101.391441226
    70   1 59.234400765 0.575075617 18.756056842
    71   1 59.730845663 0.093645709 62.993863619
    72   1 59.870374091 0.620324115 97.453993983
    73   1 99.051463783 38.036125109 19.720459743
    74   1 98.829831308 40.720030596 59.254849303
    75   1 100.063876454 41.425047234 98.912149796
    76   1 97.661248616 78.459279373 20.682194523
    77   1 99.197458946 77.511009929 59.466874424
    78   1 98.873419042 77.512401342 99.887574301
    79   1 98.473839953 0.579732414 20.483347532
    80   1 98.957946172 118.573290171 57.666875878
    81   1 100.820412513 2.543990159 98.197858683
    82   1 20.925349270 17.933459251 40.728721101
    83   1 18.844677122 19.374274882 78.678128591
    84   1 20.912080933 18.608195951 118.193813001
    85   1 21.851906990 60.356972565 39.948810635
    86   1 20.503313596 59.832740755 78.835186873
    87   1 18.562865111 59.957797489 2.152028188
    88   1 20.358092441 100.248825611 38.653264035
    89   1 19.864880945 98.390674277 80.582509801
    90   1 18.336960557 98.684244261 118.650625146
    91   1 57.025528467 17.935719929 40.072332105
    92   1 59.615860012 20.679271080 79.582419465
    93   1 59.848642052 17.973124695 116.335689459
    94   1 59.985926544 59.115679788 39.000241593
    95   1 60.768787727 60.324785592 79.296556781
    96   1 59.383915537 60.685553235 1.447478129
    97   1 60.021177778 98.975447272 38.486669296
    98   1 62.300404223 97.119438428 81.293137619
    99   1 60.828298296 99.908484695 118.122071015
   100   1 98.995517196 19.958769619 39.945986061
   101   1 100.067792525 21.429437812 77.499502927
   102   1 99.650192126 20.892624114 117.637308813
   103   1 98.190955703 60.271968597 38.228919817
   104   1 99.496545633 59.159861788 78.213975987
   105   1 97.795808947 58.726634850 1.618395510
   106   1 97.864511321 98.303868683 39.855664189
   107   1 99.274152663 98.255757425 78.498835130
   108   1 99.264529186 99.940848045 118.802042389
