data.9 (written by ASE) 

108 	 atoms 
1  atom types
0.0 10.911092153  xlo xhi
0.0 10.909945606  ylo yhi
0.0 10.911179240  zlo zhi
0.005998722 -0.005015041 -0.005921913  xy xz yz


Atoms 

     1   1 3.749380972 1.874809232 118.176492598
     2   1 118.580860210 0.572013130 38.653744649
     3   1 0.263740154 2.046029738 79.248718032
     4   1 118.894956222 41.673220072 118.865944280
     5   1 118.916541369 37.353791391 38.932102413
     6   1 118.571131692 39.496362507 78.905198664
     7   1 117.927681558 78.149338248 118.265259154
     8   1 1.351389044 79.635290505 41.031044397
     9   1 0.089569267 81.794219409 79.374825481
    10   1 40.553466402 118.682513743 0.068287095
    11   1 38.819316360 1.269870062 39.746152908
    12   1 40.541701729 117.792522907 79.068473593
    13   1 37.807662395 42.246805707 117.559261821
    14   1 36.038029873 38.140149098 37.275276252
    15   1 41.888096367 42.095011363 80.780082407
    16   1 41.230151276 79.620171158 118.671518478
    17   1 39.851157150 77.992730164 41.669035923
    18   1 37.008847219 78.011314913 77.385758617
    19   1 80.957568711 118.426177281 118.187895805
    20   1 78.775007247 1.958766920 39.145003215
    21   1 77.895895065 1.302774871 80.439098304
    22   1 79.536333704 38.150560681 0.327883506
    23   1 80.720191686 42.402912879 39.808273382
    24   1 76.850399280 35.662559195 78.149628617
    25   1 80.442370733 79.409752285 1.522883374
    26   1 78.742776823 80.584209114 41.183658631
    27   1 82.050270690 77.005812381 80.607794071
    28   1 40.369918377 21.427563933 18.887944826
    29   1 39.507859662 22.550013211 62.044378251
    30   1 41.967254507 21.850989032 98.191933097
    31   1 39.525604798 56.007318195 20.530848524
    32   1 40.000423431 61.289902747 59.033454574
    33   1 40.117102504 62.784297101 100.461170405
    34   1 41.820189094 97.639077601 18.630442559
    35   1 39.734764427 97.118420593 61.457003006
    36   1 39.222382822 96.562753604 97.953244979
    37   1 77.624249463 19.836423790 18.428328619
    38   1 75.969758025 19.050651791 59.139367821
    39   1 78.660051902 20.002206050 98.078089850
    40   1 81.226853528 61.296006185 22.348074315
    41   1 76.639688766 59.319182745 61.649843883
    42   1 77.661545324 57.202242391 97.483693332
    43   1 78.910923559 97.478359568 22.417131765
    44   1 78.959643108 100.997282405 64.502743227
    45   1 81.036051404 98.335084232 98.793347471
    46   1 3.737356915 18.984008594 18.326196831
    47   1 118.423061923 19.200208244 57.715415322
    48   1 1.643470151 19.195290239 96.383479561
    49   1 118.876478385 59.009188075 18.316444520
    50   1 116.816866213 60.157798937 61.298405089
    51   1 116.977219063 57.386997238 97.218128728
    52   1 1.058343322 100.320583236 19.382880212
    53   1 1.471363110 100.045563925 59.640049465
    54   1 0.722045557 103.388194243 99.557796472
    55   1 19.694071221 39.440968450 18.681235609
    56   1 18.577294415 39.741824233 58.457461037
    57   1 18.170617517 43.158057777 99.828181335
    58   1 23.128126635 78.944691131 18.890736687
    59   1 16.126247256 80.154239987 60.344499167
    60   1 17.902568350 76.603248407 99.934570185
    61   1 22.090447290 0.488512039 20.348377048
    62   1 22.897908771 0.685648495 60.649634961
    63   1 24.087952672 0.359385160 97.732262397
    64   1 59.918009738 40.766302786 21.368478613
    65   1 56.029509979 40.442038869 59.811247819
    66   1 58.390140620 41.183934654 100.600450261
    67   1 59.313147298 79.886100719 22.132692136
    68   1 59.506346815 77.930630779 60.030751570
    69   1 61.481555454 76.854820126 100.467408507
    70   1 58.550660111 114.977559254 23.103579048
    71   1 58.652836490 117.237942034 56.982041517
    72   1 58.596955481 0.011553034 98.674972934
    73   1 99.511498673 39.945411524 19.326096766
    74   1 98.691832059 36.714590521 59.815091041
    75   1 98.608127711 39.370854978 99.398839530
    76   1 101.563826205 78.407106395 19.657875990
    77   1 97.711171006 76.649522268 58.536190849
    78   1 100.841958419 80.114257029 100.897929521
    79   1 101.280421389 0.895433458 16.458939234
    80   1 100.693054745 0.775162006 56.034425101
    81   1 99.886198507 1.106406178 98.155732445
    82   1 18.872957798 18.109692880 39.715468533
    83   1 20.907489776 20.912700379 79.769378757
    84   1 20.356475285 21.461103752 116.966147320
    85   1 16.897728038 58.295088434 40.352822425
    86   1 19.784810478 59.336970324 78.220396991
    87   1 21.290103324 61.622429610 2.515128599
    88   1 21.326231542 100.906978632 39.432264378
    89   1 19.786328397 99.691997751 77.946345856
    90   1 19.707084070 98.308391400 1.915922228
    91   1 57.628965259 19.565828310 39.130526247
    92   1 58.946568459 18.816409827 79.748865403
    93   1 60.460266191 16.114941342 -0.016531270
    94   1 60.451650528 61.047964366 40.531796884
    95   1 56.329665894 63.861115785 80.317326747
    96   1 64.055365543 60.091751377 2.939659332
    97   1 57.301684321 95.747637671 41.627452502
    98   1 60.738829274 97.156388319 80.540224747
    99   1 60.322941648 98.729410837 118.109966129
   100   1 98.122412441 19.488927299 34.104195981
   101   1 96.986646427 18.693674988 76.053994826
   102   1 96.798038225 20.110259314 1.186567472
   103   1 99.958395849 57.575718779 40.080261651
   104   1 96.846578404 55.694891382 79.490116201
   105   1 97.165515410 59.409054611 118.219251796
   106   1 99.676208395 101.930659279 38.244804072
   107   1 101.988497260 101.089933237 78.888808364
   108   1 100.994958229 99.392651846 118.505933867
