data.112 (written by ASE) 

108 	 atoms 
1  atom types
0.0 10.911092153  xlo xhi
0.0 10.909945606  ylo yhi
0.0 10.911179240  zlo zhi
0.005998722 -0.005015041 -0.005921913  xy xz yz


Atoms 

     1   1 22.479260902 58.322482461 112.472321259
     2   1 28.836534279 53.291950753 59.141739722
     3   1 30.033210135 76.343677423 38.698455313
     4   1 29.078534762 36.606127138 9.648586540
     5   1 84.255514094 93.338331478 35.858690953
     6   1 42.511716965 39.541587993 76.940148300
     7   1 56.005673388 7.405366854 44.538864770
     8   1 101.715883038 79.808515739 78.457004413
     9   1 85.837394873 64.102763564 93.871718713
    10   1 22.975873237 59.627205362 85.150799519
    11   1 89.926885863 51.968718109 67.275755089
    12   1 76.232961950 17.274766237 42.479821249
    13   1 74.745265746 109.564917067 115.237190864
    14   1 13.643296316 110.805198745 117.171486850
    15   1 1.394797397 20.546490162 98.783699747
    16   1 45.461322172 76.210140766 96.355264786
    17   1 29.195159512 6.719750726 12.339648520
    18   1 70.323883598 78.933283580 81.358486385
    19   1 11.707821479 59.394117099 34.333227414
    20   1 53.643885913 106.803034046 72.879282812
    21   1 33.709088710 96.031475206 53.108142789
    22   1 10.814363058 103.673707179 69.791933358
    23   1 116.741397865 71.980484606 13.083450191
    24   1 11.058458808 25.406074216 25.400310581
    25   1 77.028332527 14.055350819 1.863497567
    26   1 57.133182196 52.639905697 90.970384161
    27   1 105.321174471 105.468622613 24.413857594
    28   1 104.707748720 103.303541998 70.214954790
    29   1 93.544160075 1.565039659 46.137601559
    30   1 12.649818863 10.834140710 79.471364435
    31   1 76.603217559 36.441960781 16.279915592
    32   1 95.779582045 57.917903070 117.090639136
    33   1 29.644843126 36.333213860 98.001396418
    34   1 117.411932439 64.585705544 104.745247768
    35   1 54.732491689 29.301928543 107.449171333
    36   1 30.287555510 98.645426497 26.130229408
    37   1 32.072576926 7.956596776 61.614738036
    38   1 5.987900921 80.654008802 86.707756877
    39   1 114.790389941 68.321407164 59.270159359
    40   1 43.146838217 102.464509935 105.544705178
    41   1 70.807646486 58.575941730 21.584775253
    42   1 85.478902703 35.095392468 106.666261210
    43   1 58.083863249 33.885347855 36.080723507
    44   1 22.822574759 91.665926530 102.670350668
    45   1 55.747123934 12.141598103 69.042329596
    46   1 24.799840590 13.164597593 107.488828205
    47   1 72.575216819 49.686795858 111.024263930
    48   1 114.253122502 6.965679927 62.963646636
    49   1 46.205214707 55.550566649 111.846578517
    50   1 26.428923143 111.428208332 90.812474962
    51   1 114.227814674 45.542460937 56.959203515
    52   1 4.844745486 111.011251871 45.863977330
    53   1 69.787378379 57.620532193 70.893442481
    54   1 102.116822403 22.513013479 20.124041048
    55   1 47.448613777 110.322260578 15.278062647
    56   1 107.418360333 32.757020158 112.532155783
    57   1 55.147687756 20.851101141 12.118018805
    58   1 8.558030972 116.102494352 21.107865702
    59   1 99.186719390 108.807451117 94.802449965
    60   1 52.312291164 58.301856408 49.813581072
    61   1 111.277146800 59.113880548 81.352201896
    62   1 116.712151511 12.442180751 3.176678307
    63   1 112.708463004 90.211814193 114.440677078
    64   1 3.966681523 111.119708782 96.042404349
    65   1 98.108058369 65.811932890 37.833669951
    66   1 41.308193207 16.844756589 85.400597160
    67   1 26.995984237 0.367324189 36.391902394
    68   1 92.120867943 77.418049230 12.097598028
    69   1 76.709951454 34.635310940 85.471821236
    70   1 115.917125870 13.402509665 38.667889817
    71   1 7.996429556 44.621581764 97.911011487
    72   1 70.654441218 34.681379718 60.022186176
    73   1 35.229029852 50.611863987 35.598675811
    74   1 94.754244308 51.552979286 18.987206392
    75   1 101.939593051 110.809156788 0.444007621
    76   1 75.408748975 109.237539486 56.342099949
    77   1 63.943365084 71.108736550 110.447174628
    78   1 108.711329116 87.841431415 50.332970604
    79   1 14.805043793 35.226524221 75.590629491
    80   1 57.381038083 88.853106199 56.353468882
    81   1 47.761165539 70.158487647 21.952079022
    82   1 68.801332257 90.522104061 10.293731940
    83   1 85.855467996 45.828123609 43.146252123
    84   1 27.311000375 67.106467865 15.467082673
    85   1 56.199324933 94.385996250 34.341890905
    86   1 27.435449834 86.575047247 76.535706549
    87   1 107.670867141 32.263004633 84.121427419
    88   1 15.754834452 87.865830709 9.763216303
    89   1 45.885803815 84.591362333 0.623169755
    90   1 89.587709237 87.904910960 109.256452413
    91   1 64.164060260 8.603525206 95.137093033
    92   1 39.646426253 29.767983147 56.012585411
    93   1 47.763422318 3.543539038 114.498500578
    94   1 44.244968275 69.726692798 74.083422584
    95   1 75.645311565 117.869764572 22.280181873
    96   1 89.892102489 12.009617146 98.173697222
    97   1 69.703946197 100.835501998 92.396986066
    98   1 74.071151386 67.610725331 45.183289905
    99   1 112.553294193 41.058361763 34.149197349
   100   1 52.649220746 46.611890937 12.708079194
   101   1 16.337059271 79.992518741 57.426600373
   102   1 82.775230264 82.358481837 60.376244288
   103   1 95.418490204 19.974275647 66.422330093
   104   1 35.580986961 22.899173112 34.750647510
   105   1 13.589820526 30.817255916 49.339954841
   106   1 3.345000328 89.314241389 31.086979702
   107   1 81.308724329 116.178106353 77.634228758
   108   1 3.843032740 45.438109902 11.496917923
