data.81 (written by ASE) 

108 	 atoms 
1  atom types
0.0 10.911092153  xlo xhi
0.0 10.909945606  ylo yhi
0.0 10.911179240  zlo zhi
0.005998722 -0.005015041 -0.005921913  xy xz yz


Atoms 

     1   1 117.941870981 1.593864642 118.471558010
     2   1 1.547692081 118.019258571 40.928339116
     3   1 116.195363953 117.234735388 79.338424287
     4   1 0.337901571 36.549376817 118.597723191
     5   1 118.762070656 40.213283679 39.169562985
     6   1 117.647752896 39.398223719 80.771368455
     7   1 1.659425625 78.628372724 1.683215018
     8   1 4.278968642 78.807713656 38.587044723
     9   1 118.633312761 80.509437440 78.508018154
    10   1 40.329470868 117.906476445 2.228089899
    11   1 40.771849499 1.907445885 42.910907321
    12   1 38.468866257 118.654321999 78.328801270
    13   1 40.005222761 43.251524799 1.740501004
    14   1 40.382489960 38.358105111 40.093545744
    15   1 35.644594711 42.164015589 76.671034429
    16   1 41.693002161 79.452296250 118.319473779
    17   1 40.989655087 79.402260823 40.107785931
    18   1 38.679118146 80.440992182 78.078232584
    19   1 83.159182171 0.442947498 0.568711825
    20   1 81.607730890 0.052627490 40.539569734
    21   1 78.856693491 1.090776327 78.267468467
    22   1 78.264373739 36.925213142 116.717201574
    23   1 80.910298040 41.260525341 39.967504520
    24   1 76.892797351 38.716518160 81.280972076
    25   1 77.972885657 79.685471944 118.096470852
    26   1 79.221150586 78.929705795 37.948335002
    27   1 76.401577944 79.627610048 79.964172525
    28   1 37.538703598 20.347785341 20.800169273
    29   1 39.438462516 21.298202029 58.764561790
    30   1 40.022598089 19.553823785 98.531352655
    31   1 40.143312196 59.700288096 20.673806639
    32   1 40.906637824 60.478533676 59.184081318
    33   1 37.237278309 59.484360703 99.209338291
    34   1 40.382558471 96.439334090 20.077900787
    35   1 39.859121856 99.232214939 60.149064482
    36   1 40.938349839 99.589200442 100.896443462
    37   1 80.551615982 22.416462326 19.942209717
    38   1 79.875431103 22.677062797 58.885830292
    39   1 81.258117256 18.287832609 98.131638153
    40   1 76.851761105 58.293085602 18.384008383
    41   1 78.026726222 59.820403780 60.336247202
    42   1 78.860816731 59.223147156 96.484612923
    43   1 79.173086026 99.087809280 17.431950632
    44   1 77.518177322 99.152499092 57.458088301
    45   1 79.236049279 96.191822610 100.006591006
    46   1 0.913807293 20.336328941 18.442719318
    47   1 118.425735438 19.901490178 57.979928325
    48   1 2.463109602 16.986751602 97.908665953
    49   1 117.237876811 59.793509134 21.947317837
    50   1 0.568720630 61.104198152 58.417241510
    51   1 118.803002545 58.144660424 100.841352438
    52   1 1.502118715 102.142298779 18.927854780
    53   1 116.531803868 97.813909518 59.017393263
    54   1 1.611397779 97.482693074 101.936548444
    55   1 19.520510134 40.571076610 17.461591310
    56   1 17.078320435 37.931017738 58.769505716
    57   1 18.354819219 38.865553431 97.265411384
    58   1 20.729128591 75.656633645 20.314411333
    59   1 21.232667472 84.094970178 59.051256676
    60   1 21.394026041 80.777113606 100.028444071
    61   1 22.349919468 118.928999317 19.402643000
    62   1 19.951383494 117.444335582 60.708600894
    63   1 23.132687253 118.581334269 100.523589776
    64   1 59.531113636 38.132764003 21.495091751
    65   1 60.412194128 40.397481914 58.351443781
    66   1 59.004920959 38.997595595 100.040253311
    67   1 57.320275866 76.362184224 20.828309254
    68   1 58.186647396 79.611369018 59.666855949
    69   1 54.526594165 76.980508761 98.061959532
    70   1 62.243946237 2.221366413 21.332842902
    71   1 61.072379553 117.743781296 61.195040535
    72   1 58.633712596 1.324614886 100.069792313
    73   1 100.395994498 43.362502537 19.860768945
    74   1 101.617802941 40.787814453 60.683962534
    75   1 98.666102009 40.971045924 101.165536508
    76   1 95.948293097 78.034657275 17.929140613
    77   1 97.064626094 81.300308121 59.763671475
    78   1 101.494396975 77.238945327 100.420593347
    79   1 101.084260072 1.356991476 21.116520886
    80   1 100.543176188 118.087035386 57.941306308
    81   1 99.328505215 0.964677438 101.824470482
    82   1 17.946010851 17.552581592 39.178073656
    83   1 18.137601505 17.826902995 77.622571555
    84   1 19.935071189 20.661160300 117.557162821
    85   1 20.553298879 56.552632820 41.707157965
    86   1 20.020842559 59.986227715 78.064332932
    87   1 19.964913616 59.328867669 117.931428694
    88   1 24.189461632 97.979371383 37.279210599
    89   1 18.540692334 98.752769394 78.799853184
    90   1 21.855665962 98.794501109 0.373638526
    91   1 60.348666471 20.184165571 41.995280066
    92   1 55.525563173 21.877968290 76.553848914
    93   1 61.426213357 18.866185506 2.511068214
    94   1 58.993068730 57.192526735 39.504267437
    95   1 58.837561247 57.640068328 81.610568690
    96   1 59.777105055 60.706754067 116.996977662
    97   1 61.675682949 99.989737011 37.715318547
    98   1 61.398080687 99.498237552 79.014167235
    99   1 60.739793898 98.707739692 117.686550022
   100   1 99.063028600 21.385055260 39.971134934
   101   1 97.497935215 23.067345002 80.390897999
   102   1 98.511811844 22.104121229 1.766394889
   103   1 100.419068170 61.784112634 41.469981828
   104   1 100.451366397 61.215595818 76.860327761
   105   1 97.192391023 61.151030465 117.529568093
   106   1 99.059357730 96.381458878 37.235783812
   107   1 96.756458779 98.358795368 79.229260022
   108   1 100.097460720 95.426869468 1.038349362
