data.92 (written by ASE) 

108 	 atoms 
1  atom types
0.0 10.911092153  xlo xhi
0.0 10.909945606  ylo yhi
0.0 10.911179240  zlo zhi
0.005998722 -0.005015041 -0.005921913  xy xz yz


Atoms 

     1   1 117.735512986 118.412100908 0.257613341
     2   1 118.127699212 0.310359111 40.468832002
     3   1 1.440974780 116.751241357 80.008843897
     4   1 0.479486696 42.927377312 116.945897859
     5   1 117.831091771 38.933651783 38.682564559
     6   1 0.991082248 40.177289741 79.171740452
     7   1 1.998551790 79.824773910 116.706003046
     8   1 0.640171442 80.187894379 41.320372219
     9   1 1.378780056 78.431661604 75.735034832
    10   1 39.683527879 1.539568076 118.947580008
    11   1 39.146417897 117.785778635 37.545057174
    12   1 38.689909043 1.225160943 82.428334368
    13   1 39.084755720 41.159463371 118.275492442
    14   1 41.441327200 36.876088191 39.678960636
    15   1 41.251389817 39.449560385 80.704901579
    16   1 40.166198142 77.824781015 0.223853525
    17   1 38.071354397 80.256057656 40.295935668
    18   1 40.152677133 79.675537872 78.722051661
    19   1 80.285083615 0.241003124 116.939757697
    20   1 80.917185327 117.603018096 37.425714036
    21   1 80.204393900 0.232521302 83.661880561
    22   1 78.618610505 38.316195984 118.627335718
    23   1 80.844526445 41.300024301 37.588223081
    24   1 79.122155444 40.145724401 77.460045066
    25   1 78.440430202 78.898136452 118.484560410
    26   1 80.332733018 81.243433224 37.796084777
    27   1 75.856260601 77.511448356 78.396799331
    28   1 38.777323590 19.092432589 18.563022003
    29   1 40.421610238 20.436482195 61.331972679
    30   1 39.960895696 20.871733479 100.204919610
    31   1 39.097625314 58.697264240 23.057098037
    32   1 40.232785825 59.319948099 61.116905676
    33   1 39.715310968 58.648346111 98.056926412
    34   1 39.380296977 99.429397636 21.194892517
    35   1 38.964557128 100.502768412 58.283332285
    36   1 38.297116253 99.451013640 100.451518768
    37   1 79.999667929 20.067439337 19.553717606
    38   1 78.149817369 19.410477226 59.784156515
    39   1 81.682512475 21.581607555 99.331980413
    40   1 78.105075624 59.844111292 20.163873812
    41   1 78.513806612 60.060810774 57.974222618
    42   1 79.458193396 58.255590669 100.188627087
    43   1 80.822382789 99.519993593 18.313503926
    44   1 78.290333296 98.379669672 58.751434148
    45   1 80.549969734 97.295434154 99.140105296
    46   1 116.262436587 20.522009853 22.392190009
    47   1 118.829128717 20.524078319 59.372334618
    48   1 118.021542228 20.112361740 101.045569716
    49   1 1.587455132 61.250778466 23.220699111
    50   1 1.424168707 60.168429313 58.379258804
    51   1 117.576918493 60.200955056 97.138941415
    52   1 0.656711817 97.936146017 21.084684886
    53   1 3.947356567 100.599214279 61.071542614
    54   1 0.343851863 97.252978809 97.755609921
    55   1 15.702894060 39.956519856 20.351091285
    56   1 20.473791347 38.345871795 59.782534598
    57   1 19.711661663 42.191969931 99.510361632
    58   1 21.625913854 80.441092718 20.434266878
    59   1 20.952328773 79.850857439 57.900771135
    60   1 21.113780640 80.420219727 96.833243403
    61   1 18.643143645 0.404827527 16.855301613
    62   1 21.263204718 1.394763013 61.834110706
    63   1 16.990946682 117.538014296 99.517759656
    64   1 61.677490419 35.195554310 19.928593591
    65   1 57.193339345 41.151087337 58.705032698
    66   1 60.194403299 38.332967343 97.594821139
    67   1 57.407254607 77.471120642 21.774026301
    68   1 59.451697429 81.202861112 57.504227365
    69   1 58.563056771 78.137783217 100.299354624
    70   1 60.305932459 0.780358464 17.291924569
    71   1 59.798235696 118.815790499 58.685033237
    72   1 59.682361525 2.028732340 100.373229828
    73   1 98.083380665 41.327597252 19.461724603
    74   1 98.660171044 37.536774590 59.694772341
    75   1 98.419863063 41.024103096 100.341411427
    76   1 98.491158395 78.437741450 18.039544671
    77   1 100.234433383 82.630181866 61.543490339
    78   1 97.649786817 78.339000523 96.457152934
    79   1 101.143362660 118.764319823 19.522953410
    80   1 96.494523629 118.178783534 60.612779866
    81   1 99.099105622 118.565332574 99.742333915
    82   1 19.378090683 18.408998989 36.292277156
    83   1 17.729259810 18.855469673 80.591045863
    84   1 20.478983164 21.844049457 118.653947109
    85   1 20.033484197 59.277333283 41.823662820
    86   1 18.784600315 58.865663308 76.173863237
    87   1 20.221104260 59.785132481 118.525379977
    88   1 20.775726717 102.067520210 39.378194492
    89   1 23.519039066 98.452960765 77.666240322
    90   1 18.310682831 99.079242041 118.747332714
    91   1 61.596065588 19.285750251 40.680006805
    92   1 62.632060429 18.791210895 79.684800929
    93   1 59.309714792 19.182362314 118.668140353
    94   1 58.688667420 62.218546879 40.618405164
    95   1 60.881532384 56.407345680 81.319568649
    96   1 60.417256035 57.303834284 118.423127472
    97   1 59.065808734 100.587536193 37.630355992
    98   1 59.879047745 96.384789944 80.223283955
    99   1 58.870936635 96.949498439 0.093088741
   100   1 99.584088410 19.067751451 41.230194215
   101   1 100.016875074 17.256926918 80.393011701
   102   1 99.380846439 19.862912310 1.422669714
   103   1 98.821366699 59.544396866 40.568193912
   104   1 99.561852280 60.156566877 77.604206905
   105   1 99.121159040 60.508836471 118.049057007
   106   1 101.645293591 99.996466046 41.984428347
   107   1 97.275325659 100.233675191 81.042384274
   108   1 97.588874328 98.197919055 1.286345186
