data.77 (written by ASE) 

108 	 atoms 
1  atom types
0.0 10.911092153  xlo xhi
0.0 10.909945606  ylo yhi
0.0 10.911179240  zlo zhi
0.005998722 -0.005015041 -0.005921913  xy xz yz


Atoms 

     1   1 118.634205984 0.535534927 0.158645371
     2   1 2.073630298 118.417053166 40.915976178
     3   1 118.845431355 117.426909260 75.710723162
     4   1 118.764070700 38.774167165 0.501905968
     5   1 0.972550947 38.445250889 39.402289801
     6   1 118.844552049 40.055262248 78.779048948
     7   1 0.332544903 78.908737773 118.908570586
     8   1 118.878177446 79.355214097 38.191318833
     9   1 118.386848561 78.827468415 78.946566706
    10   1 38.836582601 0.422112740 116.811321700
    11   1 38.598726981 1.438522856 40.638709151
    12   1 40.722401818 1.522831689 79.167307463
    13   1 39.899201609 39.410149736 0.461614947
    14   1 39.521354220 39.457160799 39.945480434
    15   1 38.552038154 40.944051690 80.066131579
    16   1 39.873270535 79.701976764 0.182253296
    17   1 40.188953076 79.241085466 41.447477623
    18   1 39.651774950 78.540375043 80.263334917
    19   1 79.260534529 118.869685379 0.613162036
    20   1 80.045391443 118.499008334 39.261676359
    21   1 79.537836602 118.920829705 77.439616008
    22   1 81.482428508 39.792814827 0.473367581
    23   1 78.817153124 40.547667033 39.759675816
    24   1 78.420244522 38.819907782 79.170342441
    25   1 80.873402899 79.341595380 1.219730311
    26   1 78.888391092 78.271119085 39.503568866
    27   1 79.475239257 78.824569196 79.902239926
    28   1 40.000370665 19.233759949 19.362067571
    29   1 40.007980331 19.890428316 60.378242829
    30   1 39.319369207 21.536423919 98.588222266
    31   1 39.350079204 59.888302170 20.324408207
    32   1 40.394314061 60.838168541 60.399303838
    33   1 39.752268578 59.858711583 100.065761875
    34   1 38.695596956 100.703489144 19.389541273
    35   1 39.829277890 100.202766933 60.575359510
    36   1 39.066632144 98.437854366 99.139979969
    37   1 78.832173258 20.591333887 19.667666363
    38   1 80.171436833 19.762381441 60.110910570
    39   1 79.502017499 21.065998701 99.522438862
    40   1 79.231409936 58.815316311 19.809133956
    41   1 77.744509553 59.417438179 58.472213000
    42   1 79.673820423 60.299728520 99.586078183
    43   1 79.587212404 98.906559812 20.230456356
    44   1 80.559382848 98.904537226 59.923619794
    45   1 80.544710838 97.918096328 98.860945884
    46   1 0.912531596 18.374745475 20.673066604
    47   1 0.460582889 19.487161682 58.410940322
    48   1 0.440909955 18.708087055 98.624651074
    49   1 118.940459998 58.475228875 20.298593457
    50   1 117.515770855 58.641048401 57.772533136
    51   1 118.434347880 60.456518174 99.528532797
    52   1 0.667450922 99.200989213 19.652014579
    53   1 119.033648825 96.477217133 57.958342154
    54   1 118.784952849 99.307624817 98.187343606
    55   1 20.513438642 39.489443079 19.721243884
    56   1 20.304408804 40.823866847 59.172307824
    57   1 19.265324423 40.850524010 98.656726385
    58   1 19.151330687 78.618100595 18.855239774
    59   1 20.907682621 79.862212408 60.006490097
    60   1 20.223748215 79.013578954 99.429788545
    61   1 19.765104444 118.455804598 19.737676537
    62   1 21.313124706 0.046264117 60.597850379
    63   1 21.065855788 118.207861108 98.269268090
    64   1 58.955751452 39.814244568 21.079303313
    65   1 58.733602686 40.832634767 60.342677846
    66   1 59.013740253 39.340543187 99.544323160
    67   1 60.218245039 80.617437927 21.408508441
    68   1 59.856090627 80.774791498 59.129477198
    69   1 58.873814544 78.412762753 99.590930586
    70   1 58.994951231 118.504342914 19.125183451
    71   1 60.472175355 0.755024099 59.145940433
    72   1 60.451712265 0.746661389 99.555434066
    73   1 99.158012661 39.228260927 21.544144448
    74   1 99.724357471 38.916289040 59.927475482
    75   1 99.516552902 38.988912346 97.836643328
    76   1 99.332480065 79.244722663 20.271574214
    77   1 98.113000532 78.466284213 59.971047443
    78   1 97.904045734 78.960292494 99.579837386
    79   1 99.832922388 0.747218089 19.359478421
    80   1 99.475171618 118.743287990 58.712909784
    81   1 97.863617073 118.436837616 98.326826516
    82   1 21.099249892 20.456757620 39.325889857
    83   1 20.756991772 20.804885515 79.287457579
    84   1 18.672658091 20.076409958 117.942723150
    85   1 21.435482064 59.285208335 39.156447086
    86   1 18.700190647 59.940386140 78.752143358
    87   1 19.864349103 60.054959221 0.550937010
    88   1 19.498059171 97.320129463 39.164441396
    89   1 20.112460789 97.810607126 78.260566306
    90   1 18.360084495 101.151291424 0.267175262
    91   1 59.345637915 19.458409040 40.551416951
    92   1 59.428395172 20.112904125 79.431257419
    93   1 59.693742783 20.104827073 118.875807517
    94   1 58.415273852 60.139959706 39.121009290
    95   1 59.885035092 60.306778453 79.578654044
    96   1 58.859644027 60.848393758 0.987249696
    97   1 59.515719562 99.038805611 39.078207480
    98   1 59.131114075 98.475492702 80.670492881
    99   1 59.809935206 100.048621802 118.701778854
   100   1 98.781077617 19.019904404 40.349710177
   101   1 99.629758164 19.656977099 79.311474236
   102   1 98.825219482 19.747171363 118.400134736
   103   1 99.905062254 60.046852862 38.733637493
   104   1 98.340321448 58.743731203 78.237115305
   105   1 100.161302427 58.711706697 0.174979548
   106   1 99.018657878 98.992683792 38.527905370
   107   1 99.423594376 98.287803392 79.544279548
   108   1 99.763305970 98.872027368 118.946090962
