data.22 (written by ASE) 

108 	 atoms 
1  atom types
0.0 10.911092153  xlo xhi
0.0 10.909945606  ylo yhi
0.0 10.911179240  zlo zhi
0.005998722 -0.005015041 -0.005921913  xy xz yz


Atoms 

     1   1 22.286892186 44.813449872 80.591654221
     2   1 38.498752369 78.931958719 105.072440914
     3   1 11.282518257 40.815976390 38.182630367
     4   1 1.145981540 34.893139781 116.802323753
     5   1 96.566671913 47.535978648 69.577251604
     6   1 43.513203541 67.722696140 83.185318834
     7   1 85.417702543 115.689836896 12.100034850
     8   1 30.116760796 56.339106259 48.930158307
     9   1 94.768234477 102.489323260 67.721025705
    10   1 45.550147299 59.813581058 2.070651129
    11   1 54.631368585 10.128097811 83.154191497
    12   1 72.701065074 5.760616247 68.292246061
    13   1 91.735908125 113.532485554 104.188917517
    14   1 117.203390290 3.119213383 57.030140723
    15   1 105.580442151 13.621052005 4.439315737
    16   1 57.216457116 92.244177662 18.421996671
    17   1 1.403552498 116.793000123 33.771079858
    18   1 48.593389537 107.661800416 66.542713802
    19   1 102.827269269 53.287075372 45.974552096
    20   1 73.684912084 97.560684278 115.700286204
    21   1 24.020440956 80.922368581 35.254865454
    22   1 17.873663466 7.921380815 44.040608365
    23   1 107.993424756 89.640766740 113.044509990
    24   1 44.183024211 95.076430598 40.996075141
    25   1 64.740816697 7.301144816 118.581133079
    26   1 75.374436515 47.131224389 6.970864406
    27   1 13.203150725 11.489261175 118.953400515
    28   1 101.514530840 21.360485746 97.521939119
    29   1 69.930389653 99.341005322 53.789497159
    30   1 26.209753595 21.161836714 25.795551048
    31   1 85.317985141 26.701755399 114.742736909
    32   1 87.944964842 74.902887190 108.601846312
    33   1 54.557960320 35.487151785 81.807421343
    34   1 45.990434528 95.768965322 87.861231333
    35   1 58.167339022 48.177805395 44.075370245
    36   1 14.214723606 64.629223489 12.062483182
    37   1 54.808561391 16.425309425 25.522819564
    38   1 91.207660256 93.133654722 93.226205295
    39   1 16.454351969 72.760508521 65.203850079
    40   1 31.401673933 27.803400349 100.174377030
    41   1 88.536128267 32.575750588 45.189101552
    42   1 55.857704127 29.083329766 108.885514041
    43   1 37.430613221 11.619299982 1.948975245
    44   1 31.251506603 3.258198760 91.531599109
    45   1 90.572972398 47.823353022 103.270647970
    46   1 8.905852890 24.532693819 90.024415835
    47   1 79.754997724 55.157386354 33.617071138
    48   1 99.507386107 13.992154280 29.922514836
    49   1 41.789776737 49.087979590 96.973722445
    50   1 15.779613128 26.338111877 62.577542130
    51   1 103.550752183 79.189576095 71.438751429
    52   1 5.513512926 64.318676064 41.022678677
    53   1 78.694846098 30.962971274 80.432996725
    54   1 72.935625881 31.122505854 25.754264915
    55   1 16.928623893 101.648954584 39.282446646
    56   1 113.222372978 48.112099792 94.082699618
    57   1 65.561355448 111.649886684 31.287349174
    58   1 20.431509518 108.517197935 113.783837064
    59   1 113.702768939 75.881717930 90.265548379
    60   1 66.132098782 52.184927443 65.197894616
    61   1 13.738755730 83.832310140 116.669740684
    62   1 112.620745025 63.039703472 113.885668035
    63   1 118.643098365 106.322257623 8.013443701
    64   1 41.617383586 84.233881826 66.275044748
    65   1 114.152081411 95.166390742 55.514979511
    66   1 7.078596959 118.861348746 76.941139203
    67   1 90.963257907 109.709838188 36.165789774
    68   1 98.206624093 82.458777630 41.157980369
    69   1 67.448388938 52.241149394 98.676021698
    70   1 0.592143746 22.464518241 23.508166133
    71   1 3.878784846 48.874100673 60.107085868
    72   1 41.733614514 24.518780935 46.357662951
    73   1 0.166711647 48.684462929 18.489947658
    74   1 101.594907259 68.677125165 16.822755057
    75   1 118.397503727 114.929390482 100.450949861
    76   1 75.395362904 81.317067038 33.929303710
    77   1 54.043461254 63.808199280 25.835933757
    78   1 93.965212125 9.674939625 55.782675873
    79   1 16.147364044 69.941365272 88.434346174
    80   1 25.515898261 108.075965458 58.956392076
    81   1 50.297579673 1.621849408 47.610261605
    82   1 85.776946242 66.669397800 58.457562371
    83   1 114.191434840 24.762709040 46.499593253
    84   1 23.194628272 32.930425230 7.076484688
    85   1 32.592269290 53.074302468 23.079568222
    86   1 47.023425811 99.892841442 116.461076100
    87   1 78.755244900 10.268396965 94.839349136
    88   1 65.394838052 76.797298896 95.042264152
    89   1 35.728805669 84.818424485 12.760964209
    90   1 114.063653357 98.396826140 83.941291572
    91   1 35.645130824 12.551650474 68.375716224
    92   1 49.652006833 37.481254638 11.764718411
    93   1 17.274666811 55.522680148 105.768979342
    94   1 83.821195164 64.629718216 81.768159435
    95   1 91.104570694 94.021001690 14.930514370
    96   1 54.995300324 115.976780177 102.511295190
    97   1 75.090129038 70.629745439 11.150130418
    98   1 70.099386862 86.412156063 75.334814526
    99   1 74.007578126 12.606559005 35.849698952
   100   1 63.957995556 26.734469546 59.949333353
   101   1 61.695522740 72.255102121 58.000219037
   102   1 69.877460126 107.854059304 86.005028548
   103   1 110.444675425 25.569461229 73.496803557
   104   1 31.427012818 113.214797478 19.765042398
   105   1 97.350644947 36.041461087 14.258587535
   106   1 1.368952294 88.689681123 23.678675306
   107   1 95.772458414 5.593683968 80.677733334
   108   1 20.412098037 95.042165122 83.076942575
