data.90 (written by ASE) 

108 	 atoms 
1  atom types
0.0 10.911092153  xlo xhi
0.0 10.909945606  ylo yhi
0.0 10.911179240  zlo zhi
0.005998722 -0.005015041 -0.005921913  xy xz yz


Atoms 

     1   1 22.773326287 48.211480699 80.716974621
     2   1 31.790421226 73.029583445 98.182773170
     3   1 19.568940305 39.805988844 36.948472402
     4   1 5.759392639 36.439579795 107.732226702
     5   1 91.747452001 48.518826736 76.077247101
     6   1 45.230892897 68.392750150 73.879277774
     7   1 94.263182207 0.351420317 17.666450805
     8   1 38.705807972 47.776808595 52.180905740
     9   1 90.256151062 91.809945054 61.886447348
    10   1 41.221126553 62.362162474 5.182372104
    11   1 56.919252582 13.358517574 92.310196281
    12   1 76.487605028 11.531767099 73.093457491
    13   1 102.928935871 114.217939777 109.711545259
    14   1 116.033732015 4.848973386 45.294130345
    15   1 115.798106964 20.322495563 2.262299509
    16   1 57.943449510 84.920298511 26.162704576
    17   1 8.893468052 112.450403033 17.140201079
    18   1 52.993292758 114.074328513 79.347163412
    19   1 104.878728947 58.485492896 39.327348527
    20   1 72.931949186 96.598459281 116.160225801
    21   1 37.783952335 76.568520910 48.344914926
    22   1 23.878562826 4.676039471 35.402851008
    23   1 100.869880875 93.335430063 0.413263201
    24   1 43.229767878 103.026224842 36.193617593
    25   1 66.957259903 117.857020780 1.241184387
    26   1 68.001938977 47.159377529 11.899255429
    27   1 17.845695606 8.779323491 112.470614566
    28   1 109.750253249 16.328305882 95.695193888
    29   1 67.535696935 108.367605930 58.472491509
    30   1 29.984539457 18.699556589 15.214840543
    31   1 90.366001866 22.874131469 117.295244995
    32   1 84.647046998 68.626218399 112.373391709
    33   1 46.450731262 36.472296740 83.198185228
    34   1 44.839364239 93.111187878 92.295099209
    35   1 72.258730220 40.237432190 40.511111712
    36   1 2.603437273 76.793619076 13.002578712
    37   1 52.054201719 8.231405592 27.886034512
    38   1 94.320495042 87.980461321 91.550935700
    39   1 21.095243091 74.506962167 62.623730861
    40   1 31.090642262 24.855390824 100.523399363
    41   1 86.051778013 31.870569499 59.784598271
    42   1 61.516731259 36.218848074 110.905456414
    43   1 47.634131480 21.477231217 1.063058217
    44   1 28.850797618 2.971101461 89.346673332
    45   1 98.104856003 42.440029981 101.908012260
    46   1 11.215166512 19.546978749 84.168493266
    47   1 77.693862518 62.913558075 31.163921263
    48   1 94.785891124 14.317725989 36.440680089
    49   1 36.715732663 46.157062013 103.551676685
    50   1 12.868848777 28.663334811 57.912138051
    51   1 108.302142887 73.018478323 63.597722655
    52   1 11.228655488 76.305310319 43.159136157
    53   1 81.913026287 26.759838059 90.404077686
    54   1 73.037507032 20.198117986 19.358145911
    55   1 16.871658301 98.157094298 35.715015279
    56   1 115.242376458 42.385036752 87.000224699
    57   1 70.889994118 111.753676653 31.290082042
    58   1 26.143514918 102.629107966 102.504177517
    59   1 105.916332296 66.371679885 93.605174160
    60   1 65.680516376 48.990561271 74.704376522
    61   1 4.568015699 88.344727817 105.285916280
    62   1 110.234891248 62.079214876 116.628975763
    63   1 20.099480774 98.947093422 6.295265679
    64   1 38.961380623 96.546315053 60.913831099
    65   1 1.699666014 100.070386366 53.818557292
    66   1 0.238492551 5.717366689 69.906252651
    67   1 94.632333803 107.956896601 38.418742896
    68   1 101.298311840 84.627088607 40.065088213
    69   1 55.442308535 63.363261301 98.455375278
    70   1 4.552958943 29.078954660 21.547655452
    71   1 7.276816276 52.706166164 61.652215880
    72   1 37.351534350 25.016989957 40.066937106
    73   1 117.500474794 53.134022101 20.067974338
    74   1 96.114952948 69.236437543 16.594244073
    75   1 1.723745637 110.889835069 92.374559901
    76   1 71.420461698 84.224407862 44.255446753
    77   1 48.369015878 59.788665490 29.336618524
    78   1 98.962919784 3.873626169 60.501628458
    79   1 6.903774929 73.419278327 84.145532601
    80   1 22.009934788 0.581339711 62.918669894
    81   1 46.741828322 7.192782386 56.605293061
    82   1 82.447492527 58.181470217 55.607716112
    83   1 109.221341022 30.203506297 44.820981469
    84   1 24.021759328 41.527567423 8.048514721
    85   1 22.481277001 62.753759192 19.879273964
    86   1 46.927634591 88.876821823 116.170652865
    87   1 77.860123200 116.349873118 99.106240510
    88   1 65.012754025 83.804612738 98.181777408
    89   1 30.217780870 84.211931132 24.259542376
    90   1 113.401247204 93.073145533 76.638985906
    91   1 35.888666272 23.541539781 71.195383759
    92   1 47.949234645 38.181192981 23.496444876
    93   1 15.460286560 58.885027160 111.551622767
    94   1 80.277355039 68.072422340 83.577538249
    95   1 83.741940286 91.512117600 22.890434695
    96   1 49.824918701 112.940860026 104.741505817
    97   1 63.657429280 69.936756345 5.913465102
    98   1 68.648256052 81.496071731 67.724419944
    99   1 71.263403881 15.029554589 45.344305451
   100   1 60.100980330 26.106931967 61.754992663
   101   1 58.435340520 64.403805203 49.968416899
   102   1 74.817237028 102.507027761 81.593644245
   103   1 107.686093334 26.744005615 70.669787373
   104   1 39.572910478 112.160984023 11.776574380
   105   1 90.445186917 45.195236359 17.964963904
   106   1 110.007814629 95.873504257 21.568785172
   107   1 94.542537341 111.872631941 83.398043508
   108   1 20.499260103 94.590329573 79.366121582
