data.31 (written by ASE) 

108 	 atoms 
1  atom types
0.0 10.911092153  xlo xhi
0.0 10.909945606  ylo yhi
0.0 10.911179240  zlo zhi
0.005998722 -0.005015041 -0.005921913  xy xz yz


Atoms 

     1   1 21.254422981 59.358505447 111.132728753
     2   1 22.457252883 56.594277886 59.278244322
     3   1 37.702425499 76.719981986 47.359223793
     4   1 24.745968543 34.752646673 3.715560923
     5   1 83.088234796 91.406261025 37.660845412
     6   1 47.812814889 42.012104580 73.880260294
     7   1 50.376201414 4.873067688 46.735559052
     8   1 97.190071488 84.420151088 86.246510967
     9   1 84.137892294 58.525474281 90.447609661
    10   1 23.760987552 62.030648652 85.273903063
    11   1 91.828286654 47.888900574 69.125404925
    12   1 85.864450874 19.687387831 39.288919965
    13   1 67.949202249 111.462333426 117.414398053
    14   1 25.542781912 105.601717475 117.139196254
    15   1 116.130472633 12.869468813 102.995945748
    16   1 45.156534620 80.718328888 97.589213656
    17   1 29.436459330 8.771383272 6.919690693
    18   1 70.595955657 79.026233389 80.719349146
    19   1 3.524491715 56.767451094 40.876491449
    20   1 55.982392523 110.233572033 70.787904942
    21   1 37.933743873 100.570519963 52.096186049
    22   1 6.915381693 105.719508373 71.388055499
    23   1 115.391472359 68.392129877 12.519321405
    24   1 12.629266599 25.161672639 25.253523125
    25   1 78.026089129 15.828681166 118.191451964
    26   1 59.094833164 60.038631240 90.725813075
    27   1 106.177601898 103.935204637 27.035384419
    28   1 99.911208595 111.096049677 73.184157357
    29   1 100.702099945 116.330349906 50.644307318
    30   1 16.327643368 13.051823446 82.809596718
    31   1 75.896630700 36.493600311 15.655417988
    32   1 99.589045576 60.536659104 111.085846176
    33   1 33.847329577 40.873170717 92.896498702
    34   1 118.686667790 76.471256994 102.768230131
    35   1 57.867327440 38.794465567 104.336347576
    36   1 28.165674071 91.165429804 25.891559797
    37   1 20.237027530 6.083930952 60.766387688
    38   1 1.448116456 84.092943444 77.259867953
    39   1 110.774569890 64.529356972 59.438475805
    40   1 45.534837554 110.636140262 103.210005509
    41   1 78.056823823 58.924860075 21.930319776
    42   1 83.645341685 38.149577566 102.143783515
    43   1 64.033507431 37.764412503 35.463114393
    44   1 21.438633614 89.241439686 95.484786009
    45   1 64.546355247 10.609531562 65.664893580
    46   1 21.278520189 15.439836208 104.126418577
    47   1 68.778076628 51.950473700 118.216583140
    48   1 117.163871258 12.209990835 61.673801482
    49   1 44.903332901 62.027943331 116.575455992
    50   1 29.287053564 110.812469418 81.186471651
    51   1 110.255195881 33.505083925 62.567255870
    52   1 8.898488702 104.457562139 44.894309828
    53   1 72.973661392 59.539908667 65.943774925
    54   1 98.834657858 14.126352954 15.126863733
    55   1 49.712448814 113.376860348 14.158402090
    56   1 101.511045967 32.910315705 118.254608656
    57   1 62.413538394 15.781071791 18.403708818
    58   1 9.915803458 104.641259698 18.066754032
    59   1 95.939353109 105.120106670 96.575796925
    60   1 46.474055193 54.091414025 43.206657827
    61   1 116.095088571 55.537332474 87.763570406
    62   1 3.248697188 7.826073209 7.574773555
    63   1 108.669714443 95.180331944 117.332130819
    64   1 2.611959966 104.739258484 97.163927697
    65   1 104.349605938 72.917139071 36.929399643
    66   1 42.219585927 15.307599907 86.796322801
    67   1 29.438562260 116.665466913 31.241466008
    68   1 90.953756439 78.164967672 14.245221713
    69   1 67.781326329 30.999125378 84.216641896
    70   1 114.518215192 9.686466768 31.692805567
    71   1 5.072043264 38.626781071 107.142396808
    72   1 66.189689506 33.902492738 57.782996837
    73   1 26.920455241 46.424716522 33.221904530
    74   1 100.299345655 52.205332166 18.171761578
    75   1 93.480761502 113.940602019 2.917872567
    76   1 70.817179094 113.492643993 47.547635499
    77   1 64.146320292 74.152950930 111.575964623
    78   1 107.378011994 92.901679591 55.051321274
    79   1 16.050382411 37.142046338 76.426799445
    80   1 62.193082269 88.391374623 59.472145911
    81   1 53.293597730 70.343851258 20.126245666
    82   1 68.813327797 91.721502632 14.525914585
    83   1 88.291306622 46.996758353 43.532018633
    84   1 24.850421917 63.954244347 20.135642364
    85   1 52.494920172 96.216509558 33.247781647
    86   1 34.517773024 89.389178603 73.066458873
    87   1 106.452250427 29.236941752 85.953486250
    88   1 13.877788488 82.369915000 5.317782136
    89   1 42.807447261 85.650056643 4.004781086
    90   1 85.865492625 89.834237654 114.264162261
    91   1 68.425802068 11.188237247 98.128173128
    92   1 40.724688790 27.448641356 55.105324813
    93   1 48.331599578 16.643260229 114.100159532
    94   1 49.230389216 69.866178840 68.186939825
    95   1 81.473272072 117.361283990 26.223460173
    96   1 95.745856774 8.518883021 97.136775320
    97   1 64.355847720 100.323050465 93.349295355
    98   1 67.202523931 74.784204621 40.420521929
    99   1 110.362372976 35.680203963 35.550813898
   100   1 47.255820794 44.130200322 15.302634375
   101   1 15.985583105 84.113170413 56.220297065
   102   1 87.766584344 80.102262615 60.714239458
   103   1 87.799980630 18.452683601 68.527361646
   104   1 38.317057383 22.272544120 32.689146701
   105   1 14.944224798 28.874486180 50.240671215
   106   1 7.071674478 79.456646074 31.353962036
   107   1 77.785982971 113.893111436 82.524603370
   108   1 6.840224550 46.663116719 14.819691245
