data.4 (written by ASE) 

108 	 atoms 
1  atom types
0.0 10.911092153  xlo xhi
0.0 10.909945606  ylo yhi
0.0 10.911179240  zlo zhi
0.005998722 -0.005015041 -0.005921913  xy xz yz


Atoms 

     1   1 25.531221726 44.295306111 81.066540310
     2   1 40.858615046 75.219234496 101.851536584
     3   1 12.961765660 40.643579345 42.653731941
     4   1 117.025588340 38.189138602 115.221004321
     5   1 88.750396604 49.532342446 62.257714108
     6   1 49.119789445 72.247222615 77.781673407
     7   1 84.141497760 114.754271411 14.976992665
     8   1 34.750121182 59.654192538 59.769888521
     9   1 89.477747903 96.595041772 62.805209200
    10   1 50.406600043 56.588056199 5.826554539
    11   1 61.389001023 11.838609572 72.451863740
    12   1 76.504474693 116.512553751 60.342381091
    13   1 91.808099089 111.569532765 105.871941448
    14   1 111.479970537 115.821388679 58.543492530
    15   1 100.351771862 12.481539292 2.810585802
    16   1 58.625408874 88.414153940 6.974260983
    17   1 113.557761092 118.934144451 32.072807373
    18   1 55.597375020 103.932591418 73.080190779
    19   1 106.807603898 57.290644899 44.255342371
    20   1 70.763874570 97.674742103 108.407735713
    21   1 34.668309846 77.852890920 32.864727053
    22   1 20.755663279 8.653396466 47.110474666
    23   1 103.965590612 92.917891188 110.930783040
    24   1 41.813024524 95.408908476 45.754969283
    25   1 62.001445136 8.705711961 5.984353614
    26   1 73.764789164 54.258429850 117.293943582
    27   1 10.824853882 16.021980253 0.643389863
    28   1 99.008542048 21.138603568 98.428734542
    29   1 66.456754816 100.265746423 47.829210978
    30   1 30.390865315 20.949346160 24.749761788
    31   1 76.286850156 27.343586625 117.523350529
    32   1 93.646060484 69.315970297 106.249277745
    33   1 44.351042089 32.732875847 78.067341049
    34   1 42.398629830 97.825209649 92.804523327
    35   1 58.796987470 49.224523491 40.135975060
    36   1 19.557359448 60.419124862 14.033128378
    37   1 54.244192112 13.760016177 27.575822024
    38   1 91.770890211 86.051121174 88.980401657
    39   1 6.147220861 75.447015391 63.540019571
    40   1 29.348787405 28.070451913 99.160361094
    41   1 82.475919162 36.067037259 40.821789744
    42   1 50.127522168 27.839380716 108.444990115
    43   1 34.907306042 10.689098938 2.836995263
    44   1 24.855462747 5.497246961 101.777784754
    45   1 100.592573749 42.600735184 99.680118382
    46   1 5.537961757 23.770068848 88.525466284
    47   1 80.340573510 59.215786627 28.902450624
    48   1 94.107419697 16.982554169 26.472242756
    49   1 45.899050663 52.102353195 96.502912097
    50   1 15.815514938 27.314240796 66.325405000
    51   1 101.821983135 71.006172749 67.174597492
    52   1 11.414044061 69.766274231 40.410431932
    53   1 80.561440498 26.351463114 78.769078051
    54   1 74.423857346 31.084619915 20.556069590
    55   1 20.373781763 102.099088233 39.769096689
    56   1 3.742835553 49.937641439 87.016659434
    57   1 57.259640076 103.925269007 24.946216558
    58   1 20.757456930 106.540662571 117.904140226
    59   1 118.558153466 76.350720999 93.267504010
    60   1 61.210354429 51.896939330 72.330088091
    61   1 6.610545554 85.861079779 117.846977332
    62   1 117.770338453 64.755629151 117.989964459
    63   1 114.848898965 106.101039432 10.109225916
    64   1 30.422019061 84.645344069 72.879595686
    65   1 116.899086138 94.656354766 50.920064560
    66   1 13.704822038 0.322963775 79.528132627
    67   1 91.407763273 104.170933498 40.091413368
    68   1 100.416060567 81.018559422 40.925353215
    69   1 69.033077205 40.997281873 95.371340789
    70   1 1.000517524 26.991537905 18.993502260
    71   1 7.521900203 54.321244393 64.060399721
    72   1 37.668097639 32.792233573 51.160054302
    73   1 1.553900308 49.330225225 23.677086309
    74   1 99.480885688 66.078640436 15.303390817
    75   1 118.530583296 115.433580486 99.369011353
    76   1 74.968487938 86.457695805 32.657359243
    77   1 55.044915233 68.643009808 28.362505543
    78   1 96.601322115 17.494669882 58.815593765
    79   1 26.341556694 66.911724308 86.332266776
    80   1 29.465962612 108.488737337 62.709309495
    81   1 48.947798328 1.772581099 49.722933730
    82   1 79.421396966 71.197112526 52.881546959
    83   1 117.977839244 24.196059105 47.308440530
    84   1 30.748793244 37.948237847 6.207031068
    85   1 34.190336861 50.444890694 32.269547070
    86   1 45.038415481 106.410354033 3.816173561
    87   1 77.033451937 11.261315856 98.135368224
    88   1 66.309036798 71.820276283 106.724555612
    89   1 37.519931718 80.034003638 5.991432669
    90   1 116.145637576 99.307785234 78.592657920
    91   1 36.148161091 12.634556204 72.645780873
    92   1 53.679139165 36.183446273 16.257971643
    93   1 20.037668796 50.904494493 106.539540642
    94   1 82.857645640 61.429110632 84.352615760
    95   1 93.255330098 92.643889957 16.630718428
    96   1 48.950713577 3.300758857 98.644406054
    97   1 78.662322634 75.022099459 9.133024739
    98   1 69.564804911 79.570471336 72.518387590
    99   1 73.325836612 8.875362922 36.618147865
   100   1 62.040997086 26.896562933 54.944390343
   101   1 50.660158659 74.146729877 52.859711991
   102   1 77.900094352 108.765087048 86.451227384
   103   1 105.217624620 31.577368482 75.863688504
   104   1 34.329530788 114.816078228 24.567851013
   105   1 98.294893875 40.877791452 10.695225639
   106   1 5.958382818 88.869898904 25.193451650
   107   1 98.069236957 3.550472750 82.204651224
   108   1 15.505501212 94.448716275 96.419260197
