data.104 (written by ASE) 

108 	 atoms 
1  atom types
0.0 10.911092153  xlo xhi
0.0 10.909945606  ylo yhi
0.0 10.911179240  zlo zhi
0.005998722 -0.005015041 -0.005921913  xy xz yz


Atoms 

     1   1 14.479865861 39.841208355 98.158376060
     2   1 19.857264083 80.394111622 75.855602698
     3   1 37.465234226 68.867149087 63.649677283
     4   1 23.137941885 31.012812214 24.567149967
     5   1 76.706983348 60.763330618 44.553855852
     6   1 21.178966736 53.290428963 78.393759882
     7   1 53.592462698 9.208530021 48.660162069
     8   1 95.199972406 77.945523905 59.126315407
     9   1 78.828331871 67.958926876 78.210606105
    10   1 9.848960235 66.287439057 100.348056312
    11   1 60.393401212 27.286243518 69.443546357
    12   1 78.631839010 1.751275219 41.389345766
    13   1 71.968205458 106.149510410 101.730213861
    14   1 5.027850262 111.669975550 92.304162045
    15   1 113.537726675 13.950713213 108.251823762
    16   1 69.256687308 82.754960697 113.886926298
    17   1 21.963159140 109.187473276 7.135801948
    18   1 62.408464576 87.556175113 90.372081066
    19   1 99.095821835 65.104165007 37.457628037
    20   1 50.288362163 115.650478753 90.539085171
    21   1 34.897037486 112.161985175 55.328722939
    22   1 8.606734647 3.550474914 65.313938883
    23   1 109.905997270 73.665236180 7.079413546
    24   1 29.078791798 7.647370976 33.093490926
    25   1 77.001160471 0.012432199 16.788332317
    26   1 68.271720804 60.570515522 102.874199640
    27   1 3.474626329 109.360750710 117.275878041
    28   1 110.232239791 12.487878456 77.538017605
    29   1 96.635394910 109.584615225 25.431979010
    30   1 19.876013349 24.745785164 48.514007148
    31   1 75.489949584 45.672303035 81.990260979
    32   1 108.649334782 53.912803198 109.567577697
    33   1 38.135045950 32.682955140 84.297215253
    34   1 22.537863305 87.884091599 104.631920829
    35   1 72.352362775 40.178945740 112.087079738
    36   1 33.721253047 72.140383843 18.919799114
    37   1 43.532632098 32.249942189 38.887730045
    38   1 111.011615007 64.549344585 83.578776451
    39   1 111.400821925 106.214164546 52.344371422
    40   1 54.395283722 113.310319106 1.448125811
    41   1 101.280708216 50.181560266 17.435703579
    42   1 70.460124681 16.756131024 114.916041750
    43   1 66.487303060 24.013670967 19.089429588
    44   1 28.905431562 114.414344093 104.210531616
    45   1 90.030405305 26.327243824 71.855927792
    46   1 20.353744911 16.321317011 114.493570491
    47   1 86.798891559 59.883167190 0.179057062
    48   1 108.339029148 7.185455139 38.744749596
    49   1 28.780946570 38.172670825 117.052975483
    50   1 17.405636317 18.140899854 84.413923674
    51   1 93.102751152 52.797487398 62.697893782
    52   1 16.384134860 96.871798027 57.288009456
    53   1 58.372618325 52.893054993 63.595398262
    54   1 94.357903610 2.155004374 2.371062971
    55   1 33.553565607 98.884298081 30.983374612
    56   1 95.090368708 35.747222474 116.683081785
    57   1 67.554533685 102.752787051 46.781231312
    58   1 14.772353713 86.576181901 13.038823352
    59   1 111.102087054 94.711054034 77.773498650
    60   1 45.789726413 60.973428210 40.797756474
    61   1 106.475569619 35.741438831 93.785353485
    62   1 3.150146254 35.516199794 7.451932921
    63   1 99.900473637 96.180237105 2.487987424
    64   1 24.163354845 109.042851721 78.637392276
    65   1 114.839431974 83.846367881 33.967423908
    66   1 37.665728754 15.023910012 66.929204510
    67   1 10.693504477 108.515651637 35.269592891
    68   1 88.389019246 75.032619981 20.232696516
    69   1 47.027966536 48.324994586 107.542158730
    70   1 3.790344108 8.179712357 16.547536868
    71   1 0.536856740 38.161435200 72.620202588
    72   1 33.228961613 42.353627833 59.121963686
    73   1 5.580608503 51.361924672 53.668191027
    74   1 2.170224855 60.586509448 24.718845646
    75   1 97.562522718 109.434017769 96.759505790
    76   1 90.916448598 90.650491641 39.320600900
    77   1 60.010502482 66.927865621 9.879122442
    78   1 94.152347753 2.864771954 60.249611743
    79   1 1.903521892 76.095744692 60.628728745
    80   1 57.840706595 111.486052930 65.157983722
    81   1 68.381612367 36.485600824 41.798567382
    82   1 68.470092255 80.852499976 34.157988598
    83   1 92.356687830 32.601448295 47.185173433
    84   1 23.653697531 53.343039234 33.654198887
    85   1 44.870613588 89.389796645 48.242434864
    86   1 42.522020083 93.376612919 114.454314007
    87   1 87.569732372 15.340070551 98.682627049
    88   1 37.458331369 68.359008338 111.705666291
    89   1 52.039857480 89.307300726 18.874087883
    90   1 112.648321560 86.577648250 99.814773842
    91   1 42.508501688 20.398818846 106.822444217
    92   1 53.989410942 46.674810561 16.958959404
    93   1 40.909621611 12.838591991 14.046866927
    94   1 48.844510868 64.488982818 86.238352889
    95   1 74.777105983 95.815893824 10.605986834
    96   1 64.481608155 26.387483539 94.860975096
    97   1 91.358019058 82.980364849 90.700680035
    98   1 63.245995340 84.490853447 64.095684892
    99   1 92.353718331 21.457594132 19.699912096
   100   1 78.863058573 49.982026396 22.781630808
   101   1 42.482804895 94.987563197 76.659114146
   102   1 82.707367631 103.593722351 70.008945736
   103   1 114.528843492 25.439000476 55.088326873
   104   1 53.349982139 113.992434090 28.036283745
   105   1 114.754406044 33.170997903 34.015791155
   106   1 18.898562769 76.007240025 40.138473008
   107   1 72.576858432 6.512449239 80.025957056
   108   1 12.271937862 58.817308448 2.760807970
