data.24 (written by ASE) 

108 	 atoms 
1  atom types
0.0 10.911092153  xlo xhi
0.0 10.909945606  ylo yhi
0.0 10.911179240  zlo zhi
0.005998722 -0.005015041 -0.005921913  xy xz yz


Atoms 

     1   1 27.765639402 40.212025467 100.481713171
     2   1 17.255435678 58.867650434 87.206209381
     3   1 16.397751590 42.909634441 45.685247486
     4   1 7.511063270 32.042833764 2.924196885
     5   1 78.161561436 51.982147508 45.821588547
     6   1 50.729179317 64.408460222 74.726337238
     7   1 80.202624301 108.786854489 24.633018113
     8   1 3.773693752 68.759942249 39.458725704
     9   1 94.786625882 89.034313077 69.862237575
    10   1 35.384112708 67.968455997 103.198889677
    11   1 66.141554162 6.856163970 83.599271003
    12   1 77.654852054 105.436229209 62.387491510
    13   1 82.700331827 106.227126357 0.609987369
    14   1 107.933785484 109.431208960 64.213764608
    15   1 104.818946209 18.313915240 9.282847507
    16   1 54.071567520 90.874886562 118.656295549
    17   1 117.887994846 113.174619683 22.517850339
    18   1 70.944666875 89.279145547 77.768116063
    19   1 101.906812972 55.438666918 40.378755330
    20   1 62.729700549 105.571161458 98.435554943
    21   1 42.442677057 77.445984940 25.321697204
    22   1 114.482176581 15.348865862 65.151845073
    23   1 102.167115832 93.025998510 105.391144217
    24   1 42.056159623 114.085331442 50.740460353
    25   1 67.061480522 5.974120820 0.800026399
    26   1 75.564786977 53.796998599 109.332476948
    27   1 13.939171997 4.599062015 3.542472891
    28   1 105.673856245 20.123377653 101.802230461
    29   1 63.954776937 91.213986813 43.227889808
    30   1 21.842783881 20.572524332 50.376892607
    31   1 83.534733947 32.457557986 2.421981241
    32   1 101.627378527 66.482172423 111.742194079
    33   1 57.252127153 35.131234537 70.014216066
    34   1 32.187081251 82.248858824 82.963584515
    35   1 70.910193605 43.504746017 25.331789608
    36   1 28.341299070 65.230915978 12.479852471
    37   1 44.979548469 36.134341141 46.205575839
    38   1 86.699003755 72.176164524 90.061149599
    39   1 113.578650836 80.641423848 59.016162108
    40   1 37.564787447 20.829939025 9.221556256
    41   1 100.252418214 32.773782843 30.547967901
    42   1 59.615786709 34.957502371 5.012228930
    43   1 55.674297263 7.625523242 32.995440962
    44   1 36.539425477 115.901043167 92.927892363
    45   1 95.356321646 47.466661316 95.755395576
    46   1 24.736784155 15.465445500 104.092313482
    47   1 82.615241453 62.734478670 15.928346199
    48   1 103.507540292 7.178501111 37.960504636
    49   1 52.382602427 47.736936210 100.864312784
    50   1 14.404391709 28.558418918 79.940966668
    51   1 96.640592910 61.245421045 66.645937285
    52   1 22.458408629 90.050001252 43.267595235
    53   1 81.452283824 29.025767395 71.736495364
    54   1 80.434397379 17.667605812 22.209838660
    55   1 6.862865025 114.245096424 51.122163706
    56   1 118.402886054 41.874122019 94.770524291
    57   1 47.136270634 103.427096119 24.591121121
    58   1 5.553987523 94.600259270 118.748601925
    59   1 108.657492223 69.658105861 83.344931815
    60   1 52.243886521 56.228800291 53.038118940
    61   1 5.454424666 76.352619288 101.831835430
    62   1 7.639724782 55.079242605 115.752738122
    63   1 108.582714079 114.210461348 0.239455667
    64   1 24.262911245 99.374310365 70.717656747
    65   1 111.640159091 95.758467761 39.656179608
    66   1 28.436199334 4.464078477 64.523097992
    67   1 91.971449158 107.304478740 42.204921201
    68   1 89.739890422 81.331762046 34.047828144
    69   1 69.669794885 29.518945862 96.864733875
    70   1 4.258222530 18.633184579 29.386960323
    71   1 4.577131415 59.002981391 62.867841757
    72   1 31.701540541 46.873940834 67.841618592
    73   1 1.971209690 46.000926670 23.672033789
    74   1 114.840108560 68.297607483 12.108414276
    75   1 9.011323264 117.008044600 98.096759884
    76   1 71.653528803 85.126995701 14.855465880
    77   1 56.694805440 66.508269479 3.129094841
    78   1 86.597305893 13.113030139 57.320348252
    79   1 22.117745751 74.568843861 61.549838235
    80   1 50.620960190 104.995983318 71.315380817
    81   1 51.923496664 15.434574467 58.336268220
    82   1 63.219219914 66.013687878 32.781475994
    83   1 115.364108406 36.877382122 51.111292799
    84   1 26.430965095 31.710000509 25.356370662
    85   1 27.702615579 64.750167480 39.014046833
    86   1 38.447802342 113.789331676 0.262514833
    87   1 85.066281360 10.003019692 103.075948887
    88   1 55.838403027 75.937331750 96.134798662
    89   1 30.898156410 89.461198207 5.723514385
    90   1 1.809444144 93.318315161 83.265723161
    91   1 38.077439630 26.267944955 82.645279051
    92   1 48.085601140 54.252055696 22.454633163
    93   1 30.611786306 43.008449228 3.756007195
    94   1 73.071388959 52.845432640 80.284178109
    95   1 100.701559590 90.630330967 13.086775874
    96   1 50.977488181 15.181548781 106.537081770
    97   1 78.002019202 83.605610586 110.443099890
    98   1 70.198508344 72.862264809 57.768945816
    99   1 72.029106542 1.855737026 46.294840414
   100   1 70.780690896 24.714274732 44.069445051
   101   1 44.778306593 86.025739038 59.208681428
   102   1 85.977718240 103.444361331 90.152617519
   103   1 105.984636029 36.106859472 75.129292889
   104   1 26.540558566 118.693133968 29.186829279
   105   1 102.332908167 46.265591254 10.607942239
   106   1 10.834508904 88.752354020 21.804907869
   107   1 98.684055839 6.193232491 81.975065838
   108   1 27.858436724 96.643583604 104.293396183
