data.30 (written by ASE) 

108 	 atoms 
1  atom types
0.0 10.911092153  xlo xhi
0.0 10.909945606  ylo yhi
0.0 10.911179240  zlo zhi
0.005998722 -0.005015041 -0.005921913  xy xz yz


Atoms 

     1   1 115.606303203 118.733366719 118.442174815
     2   1 118.958135809 3.752520790 41.084591066
     3   1 0.324732585 118.686418281 78.184998047
     4   1 1.633033472 37.077648203 2.967026336
     5   1 1.795021167 37.548115007 39.457877581
     6   1 118.855172339 37.152252556 79.552563939
     7   1 3.243345108 82.410384776 118.260299395
     8   1 117.161354822 81.588726217 42.189675260
     9   1 117.906609722 79.630331287 78.239886583
    10   1 41.775603264 1.068804449 1.421008023
    11   1 36.548834383 114.948239290 40.062802167
    12   1 40.284626911 117.963164016 78.271314910
    13   1 40.931406985 40.250013512 118.869572724
    14   1 42.734337134 39.839044044 41.617097661
    15   1 37.780054160 40.277463390 77.284560699
    16   1 36.419585841 78.228296275 117.747055583
    17   1 39.801849552 80.279737293 40.966233721
    18   1 38.857680342 78.982830482 76.694584020
    19   1 79.114233712 0.547626289 0.907555516
    20   1 79.615883625 1.171694892 39.047657738
    21   1 77.490298351 0.063048859 77.700291238
    22   1 77.293625466 42.174848752 0.129339748
    23   1 78.778367731 39.866654672 41.185137137
    24   1 80.792211297 40.511110012 81.457263067
    25   1 82.815043323 79.623317606 0.807711307
    26   1 83.448523767 80.167249455 36.593745581
    27   1 80.220415034 78.169162865 80.860993281
    28   1 39.222393033 18.731241459 20.434539172
    29   1 40.531149039 17.093023969 59.783417700
    30   1 40.252957277 19.485788301 100.197560706
    31   1 40.786740327 62.709487938 22.279223656
    32   1 38.584433529 59.082435288 59.681527095
    33   1 39.998223548 60.238913793 96.062377501
    34   1 39.830603337 96.672742802 18.109711332
    35   1 39.937641821 98.179330350 58.782861980
    36   1 41.026562230 100.365550879 99.914145003
    37   1 80.897231595 22.210855539 17.617041655
    38   1 80.492687625 20.800260847 58.859777731
    39   1 80.223324097 20.447071546 98.621801112
    40   1 81.379540489 60.388868752 16.927024251
    41   1 80.794966363 58.788103057 61.396780508
    42   1 78.170319208 60.715928832 100.311700136
    43   1 77.196515718 97.017950612 19.370630315
    44   1 79.066808306 98.651865683 59.882059755
    45   1 80.304025438 100.018410678 101.994365499
    46   1 2.273860802 15.535766780 18.605659470
    47   1 117.567881939 17.827096696 62.791340741
    48   1 117.000335747 18.471417525 99.144449618
    49   1 117.839683645 59.096320960 23.131647659
    50   1 0.055793356 57.636821623 59.301904315
    51   1 118.532892979 60.945071034 97.651577354
    52   1 1.387429432 99.308674901 19.494712321
    53   1 114.932930347 99.798845260 59.376355604
    54   1 117.755997989 98.792434514 95.632844297
    55   1 20.898682173 42.095852263 20.017525330
    56   1 19.256829031 39.554464126 60.891543452
    57   1 19.509160538 37.857898134 98.971230396
    58   1 20.977903293 77.545109209 19.227382673
    59   1 16.332079807 78.930059951 60.542459940
    60   1 20.908146985 76.985244241 97.231888821
    61   1 21.813909645 118.223500630 18.573824291
    62   1 17.733060683 0.917547469 58.392837152
    63   1 19.422016415 4.110655770 98.793855452
    64   1 60.874197507 41.277399625 21.377048026
    65   1 57.390161696 37.612223745 59.501070147
    66   1 57.989417449 41.283383672 100.048408953
    67   1 60.535573771 78.473498638 19.264890580
    68   1 59.226821802 79.479733193 60.090876080
    69   1 58.735448047 77.945453613 96.976826221
    70   1 60.536865609 118.052961142 22.034751731
    71   1 60.540784067 117.019804429 58.226594886
    72   1 60.517864325 0.736369513 97.026111215
    73   1 99.798313370 40.947495483 20.648347112
    74   1 98.620182868 39.145912714 59.889165924
    75   1 102.495449858 40.985587591 102.663132132
    76   1 103.350760500 77.162751540 19.087819234
    77   1 96.131255527 79.789219168 58.745462605
    78   1 99.222689921 78.203914579 100.825658766
    79   1 100.096293450 0.105955682 20.355590339
    80   1 97.755401746 117.314222906 61.396519631
    81   1 97.368366960 0.095457865 97.814563246
    82   1 19.126089771 21.097466530 38.253060080
    83   1 21.396277651 19.645138637 79.412442294
    84   1 20.884702919 23.059293514 118.472496684
    85   1 20.765745404 60.157054908 41.396398243
    86   1 18.134228167 57.716446335 77.293058035
    87   1 18.804073951 58.350243886 116.806601388
    88   1 17.484074356 98.383334066 37.525419383
    89   1 19.745644695 98.745616231 77.943901666
    90   1 19.018559107 102.663672390 116.453991262
    91   1 57.629562297 17.588721496 40.356186056
    92   1 59.855785791 20.340581298 79.470463316
    93   1 61.270553564 21.331930815 2.320982647
    94   1 62.032970259 58.544508693 41.121506521
    95   1 58.771060656 57.186780593 78.601641278
    96   1 58.367721247 61.657126298 118.857444547
    97   1 62.568231561 99.222250211 39.472320720
    98   1 60.174639711 99.465916174 78.037553489
    99   1 60.231895795 101.110698158 118.045022232
   100   1 98.809373505 19.213049316 37.783863887
   101   1 99.593531592 20.821302180 80.619974796
   102   1 97.338901379 20.070925448 117.521191799
   103   1 96.843934036 58.166991302 39.300855622
   104   1 100.588838573 61.695810732 82.231711596
   105   1 100.112937178 59.354209269 -0.035833932
   106   1 100.896639226 101.478762185 39.691468217
   107   1 95.494766402 98.908365754 80.502345963
   108   1 100.629191892 97.325532699 0.040951687
