data.8 (written by ASE) 

108 	 atoms 
1  atom types
0.0 10.911092153  xlo xhi
0.0 10.909945606  ylo yhi
0.0 10.911179240  zlo zhi
0.005998722 -0.005015041 -0.005921913  xy xz yz


Atoms 

     1   1 0.476383337 118.575772661 0.678224827
     2   1 119.091565948 118.362177460 40.485296951
     3   1 118.307273771 0.718215840 80.252856359
     4   1 0.244035601 40.928294983 118.308947119
     5   1 118.951391187 39.384105496 39.456726446
     6   1 118.411586113 39.722773747 79.741740226
     7   1 118.146651188 78.466215653 118.433328665
     8   1 0.842073400 78.890249004 41.346460966
     9   1 0.899479418 80.639264767 80.758246916
    10   1 40.898495811 118.780376041 1.562557796
    11   1 39.669422256 117.667349302 37.759892208
    12   1 38.321430475 118.644072559 79.449528037
    13   1 40.094846986 38.794408682 0.708419516
    14   1 39.604817630 38.813930204 38.646675964
    15   1 38.758098302 39.466401665 79.939212886
    16   1 39.882068348 78.832972511 -0.057529846
    17   1 39.153878980 78.796697231 40.463024258
    18   1 41.358482910 79.456598505 79.908701688
    19   1 81.231370458 1.668831829 117.630726900
    20   1 79.770726221 0.595641276 38.541682336
    21   1 79.612993894 0.723039374 77.725387457
    22   1 78.827834321 39.586666226 118.450112529
    23   1 78.535983823 39.438580437 40.406511765
    24   1 79.500277160 39.697060455 78.432308042
    25   1 78.925138859 78.616152038 0.733970269
    26   1 78.650174676 77.437744643 38.530746613
    27   1 79.903352657 78.313615555 79.191212008
    28   1 38.801545484 19.371835448 20.669992528
    29   1 39.687976852 18.065724353 59.102289761
    30   1 39.020964076 19.294730238 99.576293558
    31   1 39.039304251 59.642740317 18.806510189
    32   1 38.456565276 59.591720237 60.396822908
    33   1 40.131473825 58.726264641 99.892621543
    34   1 39.453696441 98.226461545 21.287540018
    35   1 42.277829019 99.363086442 58.282308691
    36   1 40.958397988 98.668956952 99.885690526
    37   1 79.486988467 20.715342442 18.603314280
    38   1 79.595904468 19.874988280 58.123510777
    39   1 78.511531697 19.296256834 98.079374501
    40   1 79.470758696 59.100350683 18.557851945
    41   1 79.900255066 59.749966262 59.629673352
    42   1 79.241836462 57.766871006 97.548140241
    43   1 78.966757611 100.061187796 19.010289836
    44   1 78.797291230 98.782224029 58.083567115
    45   1 78.698147890 99.048785109 99.641816946
    46   1 118.517363391 21.763159643 19.218053531
    47   1 0.224143114 20.213803578 60.416592275
    48   1 1.582536010 20.467757222 97.571331304
    49   1 0.239316547 59.558549880 20.193150973
    50   1 4.148366195 60.843101076 61.179929046
    51   1 0.594032021 60.061541361 98.296652460
    52   1 117.680985389 98.928159759 19.469206588
    53   1 0.721397321 99.266102364 61.529843746
    54   1 118.325124844 99.961288909 99.342141248
    55   1 18.503467925 39.579722393 20.493587380
    56   1 20.469709642 39.499651319 59.248430406
    57   1 21.232201476 40.059159869 98.791853987
    58   1 18.897343115 80.681516087 20.015844964
    59   1 20.597281773 80.847701376 62.956489421
    60   1 21.028505053 81.220632495 100.640903257
    61   1 19.309063867 118.692157030 20.460057332
    62   1 19.544899795 0.356995264 59.151276496
    63   1 20.910428180 118.420068858 99.178200177
    64   1 59.033632965 39.517954307 18.507151815
    65   1 58.117388702 39.225456209 59.608080546
    66   1 59.246095963 37.334714274 99.740910016
    67   1 58.900231973 77.763150489 19.476157586
    68   1 60.342344929 77.360061787 58.630247006
    69   1 59.547424073 79.395444121 98.283710453
    70   1 59.279164652 0.059698195 21.151797440
    71   1 60.853850482 118.091911328 57.510355972
    72   1 59.651475832 0.512259480 99.186743210
    73   1 99.951177444 40.776678605 17.383199946
    74   1 100.027878922 40.614634384 60.237859291
    75   1 98.549203764 38.647869873 99.208534675
    76   1 98.859207809 79.855311385 20.526354661
    77   1 100.612990819 79.176396427 60.852416107
    78   1 98.931772656 80.725059005 100.540481323
    79   1 99.492763723 1.661369068 19.533790726
    80   1 98.574402535 118.414881450 60.049642802
    81   1 98.884596718 1.290248435 97.597849787
    82   1 18.011832243 20.406876172 39.562110080
    83   1 20.361249992 18.313130518 78.275605401
    84   1 19.697554133 19.307084508 118.481983199
    85   1 19.583816626 60.514376283 38.321230751
    86   1 21.382058042 61.263536459 81.954525917
    87   1 19.257487884 60.050821943 118.924508971
    88   1 18.955640406 99.284237026 41.055747167
    89   1 18.956696092 101.219285664 80.478887251
    90   1 20.384187556 100.405497099 118.860904200
    91   1 59.488647817 19.605758688 39.026668283
    92   1 57.974514235 19.558796023 78.404553871
    93   1 60.232508213 19.591006642 1.072934639
    94   1 58.596026624 58.231673252 38.111551925
    95   1 59.016510269 58.100575707 80.089562376
    96   1 59.573346093 58.419726475 118.395408504
    97   1 60.750076205 98.627041149 38.293894249
    98   1 60.121778026 99.512780817 79.192969511
    99   1 59.520714284 98.952382156 0.498272162
   100   1 99.864687207 20.656637171 38.825745038
   101   1 99.001896031 20.075289162 77.681332149
   102   1 100.628089933 19.219208351 118.545195332
   103   1 99.180347841 59.277963839 40.881165913
   104   1 99.139205892 60.737664807 81.097243506
   105   1 98.900127797 58.495983193 116.494455577
   106   1 98.437980644 98.483642654 39.775775131
   107   1 98.140051289 98.877575022 78.459969382
   108   1 98.706466951 99.504702261 1.968372290
