data.97 (written by ASE) 

108 	 atoms 
1  atom types
0.0 10.911092153  xlo xhi
0.0 10.909945606  ylo yhi
0.0 10.911179240  zlo zhi
0.005998722 -0.005015041 -0.005921913  xy xz yz


Atoms 

     1   1 117.782939114 118.023958214 118.018680154
     2   1 0.097446627 1.131908747 38.885765495
     3   1 118.288270544 -0.027644665 79.664905866
     4   1 1.156483319 40.512799800 0.270122611
     5   1 118.184505052 39.037041532 40.080632935
     6   1 0.591105708 39.497060019 78.497258289
     7   1 118.552604369 78.499375304 0.535572296
     8   1 118.632784846 78.560898238 38.940234777
     9   1 0.567104939 78.564249597 78.600722879
    10   1 39.252926161 118.862920859 117.248206236
    11   1 39.824916159 0.591589231 40.524908681
    12   1 40.167815218 118.555166100 79.218001355
    13   1 40.178961682 40.062086462 -0.025678342
    14   1 40.031870587 38.660751973 39.287310349
    15   1 40.902308292 38.836607630 79.542477041
    16   1 40.088644233 79.561458286 0.085916016
    17   1 39.584915672 80.509406647 39.747216942
    18   1 39.741279218 78.983721393 78.781309618
    19   1 80.243191952 117.642125640 118.008163973
    20   1 77.854702983 0.449436659 39.491858282
    21   1 80.601835968 0.315724131 78.831520931
    22   1 79.424417505 40.817109929 118.773235200
    23   1 78.872286420 38.355813650 39.929419842
    24   1 79.816395127 40.206210546 79.834697460
    25   1 78.885557263 78.221364123 0.689200315
    26   1 79.307290595 80.006928993 39.867215420
    27   1 80.036713513 79.276779326 79.633270187
    28   1 38.827224195 20.756830064 19.139149834
    29   1 40.222637652 20.308240551 60.326962456
    30   1 40.934120089 19.270611017 99.277316584
    31   1 40.339176540 59.012531208 20.271092634
    32   1 39.747294515 58.276780854 59.391057493
    33   1 39.025532756 60.013530939 97.936496544
    34   1 40.762534510 100.703212291 20.776877790
    35   1 37.825189839 98.731920440 59.316894150
    36   1 37.895621477 99.173969650 98.603781441
    37   1 79.213881111 19.868254289 19.432156695
    38   1 80.152771443 20.393246819 58.972303472
    39   1 78.177890834 18.539155082 98.465791987
    40   1 78.121069892 59.796427133 20.737731658
    41   1 79.172042803 59.465138118 59.404436582
    42   1 79.583647500 59.969300745 99.164253172
    43   1 78.360366220 99.456833982 19.768197676
    44   1 79.685742219 98.472013414 59.228981802
    45   1 80.847192172 99.125611293 98.446082598
    46   1 0.524883296 19.684281237 18.915181117
    47   1 0.076282651 19.995631765 60.408325784
    48   1 1.042634373 20.806887300 99.942351937
    49   1 0.657142838 58.877323909 20.477033737
    50   1 118.861146864 58.962400744 59.125739310
    51   1 0.763552450 59.287432276 99.316095082
    52   1 119.073574369 99.537685740 20.585555754
    53   1 1.283324994 99.948877297 59.269216702
    54   1 118.140406278 98.313829738 98.918097899
    55   1 19.794002123 40.028414928 19.468649971
    56   1 19.411153358 40.253182175 58.862178534
    57   1 20.439443093 39.350041298 99.150002605
    58   1 20.437451124 79.103956659 19.754074622
    59   1 20.111234018 77.662130971 60.423547583
    60   1 19.741976908 78.862983526 99.259130425
    61   1 19.880044550 118.848580417 21.077361153
    62   1 19.051830488 0.213005656 59.748517010
    63   1 19.706859691 0.832906663 99.865439383
    64   1 60.467051526 39.740360582 19.485708889
    65   1 59.424773058 39.509703737 60.903107003
    66   1 59.267065217 38.805672326 98.820054530
    67   1 59.173421777 80.918039283 19.327050792
    68   1 59.738686002 78.831938294 59.964676188
    69   1 59.521598460 80.846984084 99.148098776
    70   1 58.268294901 1.607472292 19.931120850
    71   1 59.875174882 0.530666769 61.104295388
    72   1 59.971429877 116.550651568 98.704332419
    73   1 98.184337461 39.308851878 19.552420977
    74   1 99.337686787 40.038122018 59.480592802
    75   1 99.303927250 38.940769269 100.571909231
    76   1 98.845650378 79.698514139 20.378581139
    77   1 99.477642607 79.841115234 58.964145891
    78   1 99.354286267 79.515400526 99.202778682
    79   1 99.577995539 118.351109357 19.209833151
    80   1 99.076921692 1.249350357 58.474084952
    81   1 99.955843512 0.352797343 98.685660615
    82   1 21.579110228 19.841277505 39.749834763
    83   1 20.642165768 19.520700676 78.416971361
    84   1 19.919021908 20.125352906 118.558465268
    85   1 20.663422500 60.486599633 39.717012598
    86   1 19.645762928 58.911639651 78.746671362
    87   1 20.105575915 59.741968568 118.007810563
    88   1 19.798601601 99.749159334 38.637362859
    89   1 20.041713299 99.501887941 79.525461251
    90   1 19.683457984 97.949733364 0.655347909
    91   1 58.720085306 20.576935450 40.494904225
    92   1 59.852186518 18.427663815 79.098626308
    93   1 60.545352350 19.875937440 118.000256723
    94   1 59.232009263 58.435039385 40.398291871
    95   1 59.025016143 59.016345400 80.351694307
    96   1 59.029580034 60.598311731 118.548413016
    97   1 59.125774370 100.811425837 41.358495833
    98   1 59.536819169 98.371559765 79.176713792
    99   1 59.118215743 99.942317070 118.507739603
   100   1 97.283297701 18.736776315 38.088649017
   101   1 99.446693813 19.666963244 79.772410228
   102   1 98.954932878 19.684170579 1.135804680
   103   1 98.076734297 59.613085117 38.576490679
   104   1 98.868552637 59.062641472 79.265086236
   105   1 100.496033088 58.607263882 0.278578223
   106   1 99.772837222 100.574102121 40.013325565
   107   1 99.411284445 98.924525780 78.579484902
   108   1 99.648954144 98.903844311 0.890590072
