data.116 (written by ASE) 

108 	 atoms 
1  atom types
0.0 10.911092153  xlo xhi
0.0 10.909945606  ylo yhi
0.0 10.911179240  zlo zhi
0.005998722 -0.005015041 -0.005921913  xy xz yz


Atoms 

     1   1 118.940024118 118.504183089 116.792466995
     2   1 0.996837991 0.987672721 39.937032601
     3   1 115.766131523 0.199880609 81.299836051
     4   1 118.487493927 40.850986319 2.405886210
     5   1 118.334635887 39.599229529 39.597852911
     6   1 0.250475009 40.247269232 78.529152356
     7   1 118.911486409 76.231563544 2.495191839
     8   1 0.655296229 77.135602458 38.407107982
     9   1 118.761615935 81.052847709 81.700925443
    10   1 40.961524595 0.303469158 1.406915701
    11   1 41.005653327 2.737116938 39.741851828
    12   1 40.480432040 117.916545060 80.830073579
    13   1 38.090703272 38.588158853 0.006677980
    14   1 39.393935181 39.602523864 40.107254251
    15   1 36.639675684 39.366988630 77.135332925
    16   1 41.602990945 80.941261684 0.005538702
    17   1 41.985291186 80.729500316 37.310986833
    18   1 39.269885628 79.392422573 80.165662158
    19   1 78.984218760 0.331211690 2.486386108
    20   1 79.949715175 0.368354825 41.510806157
    21   1 77.487221293 -0.022214774 76.678142965
    22   1 79.357956278 42.277227880 118.964864510
    23   1 79.437374571 39.954122214 42.313416830
    24   1 80.076735138 39.911558707 81.261597484
    25   1 78.881296537 78.755239257 0.616408856
    26   1 79.055376651 78.434710621 40.510598526
    27   1 80.912636916 79.201310625 78.547137857
    28   1 39.989444907 20.145391955 20.449372581
    29   1 41.572176214 20.679094592 56.880247711
    30   1 37.860529041 20.162023924 101.213346161
    31   1 40.186361078 61.004263411 18.195688813
    32   1 38.468749103 59.369347575 58.479100254
    33   1 40.629314280 58.649097244 99.523963071
    34   1 41.849104455 100.422653533 20.141735715
    35   1 38.334087059 97.218960746 60.210384615
    36   1 40.325471885 98.999747049 97.666162876
    37   1 81.241317482 18.803459382 21.588938375
    38   1 80.398726832 19.785563324 60.382474301
    39   1 78.804242896 17.781464454 96.866903562
    40   1 78.021220944 58.201276504 20.210996543
    41   1 79.451105185 61.649393338 57.882806201
    42   1 77.673046635 58.567340169 97.742960921
    43   1 80.024245477 99.158097401 19.291022620
    44   1 79.728850414 96.772334014 60.060760630
    45   1 76.530060795 97.121888679 100.025188218
    46   1 118.097096424 18.574476074 19.131519732
    47   1 0.225706112 17.307216678 61.201899696
    48   1 1.093308081 20.519847298 98.309780534
    49   1 1.977831566 58.723384517 19.230493136
    50   1 118.917896134 59.042053518 60.178462785
    51   1 0.604372498 59.325430493 98.386099326
    52   1 0.319076287 100.190201804 17.934286909
    53   1 116.539109593 100.013868713 59.264185395
    54   1 0.606557490 97.900934548 100.436467364
    55   1 22.317687591 39.288222708 20.498778479
    56   1 19.039090739 40.111347822 59.874502869
    57   1 17.637021689 39.050370720 99.077878010
    58   1 19.841957694 78.664868905 18.433684616
    59   1 20.315755298 79.702391771 61.701103534
    60   1 20.045417127 77.244917298 101.917744969
    61   1 19.334094533 1.224808844 22.767346247
    62   1 21.128477664 116.767293195 58.766897788
    63   1 20.056920835 0.126266702 100.920121398
    64   1 57.236837450 43.247512607 20.317714976
    65   1 62.702170489 38.914194112 62.032934835
    66   1 55.930008531 38.442784108 94.388221618
    67   1 59.764477699 81.621170237 17.719885637
    68   1 59.021738393 78.090727395 58.485569096
    69   1 58.077561413 78.647572143 97.892985734
    70   1 58.995099565 2.972476040 20.363640161
    71   1 60.936906625 0.855048296 58.192051605
    72   1 60.629350106 117.084726399 100.675985549
    73   1 99.165292396 41.500637491 19.946158635
    74   1 100.994820818 40.568050398 58.565329478
    75   1 101.590031262 38.819828415 98.835000599
    76   1 100.062527888 77.223721433 20.571160195
    77   1 100.171920784 79.424408424 55.443512876
    78   1 98.977257033 80.210468276 99.293651027
    79   1 99.848902532 117.452109695 17.436056622
    80   1 100.518327501 118.876678524 60.538524224
    81   1 95.808709313 116.088233110 98.044506648
    82   1 19.690309827 20.927570740 41.405199503
    83   1 20.418354517 18.418932968 79.395103709
    84   1 15.591560177 20.092167435 3.159954951
    85   1 20.963751688 59.929107557 37.688143071
    86   1 21.288454547 60.701959882 81.968683862
    87   1 21.308648490 58.237429461 118.957170793
    88   1 21.965502561 99.488807399 38.711273933
    89   1 16.859568861 100.275221400 81.908889921
    90   1 19.366361701 99.867495286 1.750819646
    91   1 59.629987391 20.913806908 38.474436430
    92   1 57.452407214 20.271501462 77.139579574
    93   1 58.785523668 20.036098136 117.872162480
    94   1 59.314272502 58.251682521 39.184600026
    95   1 56.690659429 60.317842954 76.956170461
    96   1 58.178930850 62.527141379 118.550614809
    97   1 62.218037476 100.618020269 39.579825260
    98   1 59.081253465 100.613256367 80.814958762
    99   1 61.856203291 102.421622717 1.442508534
   100   1 99.802139565 21.789718350 41.119921077
   101   1 99.826064093 19.879558665 79.089823175
   102   1 100.042503458 21.664677656 117.334908232
   103   1 99.606879417 59.277105968 39.391488212
   104   1 99.901590986 60.216523492 76.787666300
   105   1 97.032950864 60.175981606 118.370928338
   106   1 98.901313521 97.264089083 37.151444655
   107   1 100.548257034 94.820388795 76.990153990
   108   1 102.095840898 95.071541129 117.990483504
