data.14 (written by ASE) 

108 	 atoms 
1  atom types
0.0 10.911092153  xlo xhi
0.0 10.909945606  ylo yhi
0.0 10.911179240  zlo zhi
0.005998722 -0.005015041 -0.005921913  xy xz yz


Atoms 

     1   1 118.666411802 118.895549749 118.316150036
     2   1 1.757043429 118.165475029 41.930120363
     3   1 0.465446931 1.997525160 79.579740263
     4   1 0.186305345 37.856759878 3.037748439
     5   1 0.444294550 39.176398299 37.054037778
     6   1 118.269271445 39.079877485 78.046233024
     7   1 118.560652321 79.456815331 0.338967529
     8   1 1.167092987 78.590689585 39.315059074
     9   1 1.755601507 77.554699113 80.070205424
    10   1 38.204636368 118.512212535 1.335715320
    11   1 38.169035060 117.648010910 41.810683620
    12   1 38.023133972 117.212050682 79.028039191
    13   1 40.315913492 40.648491907 115.404221351
    14   1 39.497336362 41.295603541 38.057729374
    15   1 41.031275821 38.475782643 82.493838234
    16   1 40.942821613 80.125819510 118.192184650
    17   1 38.859993055 82.810382092 36.992944464
    18   1 39.920935766 79.861645705 80.349760789
    19   1 78.216798756 118.040044188 118.206032566
    20   1 78.096649108 118.444230060 39.090092815
    21   1 77.794789287 0.486906227 80.107903529
    22   1 82.828522690 42.293482530 1.072971013
    23   1 77.235746351 37.627409457 39.854968069
    24   1 77.080438803 37.793687052 79.555225430
    25   1 78.923749066 79.207437717 117.479475415
    26   1 82.781635870 80.325904547 40.774897453
    27   1 81.147343706 79.428617692 76.636569343
    28   1 39.588779434 19.889794986 16.586994795
    29   1 40.735058655 20.830915722 60.494547327
    30   1 39.048711628 19.048889428 102.081306186
    31   1 36.011492465 63.300650435 18.412920667
    32   1 41.490525745 59.990704717 61.262399845
    33   1 43.139583730 62.408736755 98.543575893
    34   1 39.389159823 98.855751205 15.815039292
    35   1 39.651464340 97.773246499 58.278068551
    36   1 39.308455992 100.235931762 100.789217087
    37   1 75.208651869 20.282272654 22.423571122
    38   1 78.918380575 18.905648935 57.875287543
    39   1 82.637936280 19.769780565 99.331214683
    40   1 76.236629812 61.152487297 20.542851945
    41   1 84.550673356 58.240075319 54.430347015
    42   1 81.693727976 58.674135557 100.980508925
    43   1 79.341014406 99.221509109 18.906996574
    44   1 78.133995438 99.334166240 61.346480090
    45   1 78.823181436 100.404452220 98.416674661
    46   1 0.672242070 18.285076606 18.995281407
    47   1 1.536643828 21.571910669 57.546769864
    48   1 0.559220388 19.263070024 100.013177249
    49   1 2.441804946 59.290028440 19.748570813
    50   1 115.623151684 56.408551992 59.797814586
    51   1 0.308933597 60.566244801 100.216252236
    52   1 116.388964691 101.008130343 18.636962092
    53   1 0.255434135 99.988561947 62.469119501
    54   1 116.948032209 99.607826801 97.499655946
    55   1 21.836654265 41.586893123 19.140539092
    56   1 22.703177010 37.998484561 59.686217235
    57   1 19.204985874 38.601469998 100.486402631
    58   1 16.558487105 80.999361569 18.619532096
    59   1 18.362801095 80.472016627 61.268108714
    60   1 19.348894460 81.221078189 97.845934571
    61   1 20.867936349 118.394605652 19.992216093
    62   1 21.494533010 1.348999115 60.405026421
    63   1 18.617614760 0.982575798 98.233869306
    64   1 58.642041647 42.096532806 20.079466907
    65   1 56.658782238 39.969736912 61.352366305
    66   1 61.741110176 39.686494687 100.092910458
    67   1 58.012531465 79.736364074 20.160411562
    68   1 58.309322564 78.135898428 59.910469833
    69   1 63.519527631 77.136890110 96.125021861
    70   1 57.153471088 117.558232687 19.938728194
    71   1 58.111844715 117.163600616 59.959508940
    72   1 57.028705185 116.913991398 98.795135360
    73   1 97.919324244 34.659150974 19.834841899
    74   1 99.171626061 35.053667486 60.732366867
    75   1 102.531539886 40.110934843 99.233650039
    76   1 98.685607279 80.040433816 20.241438266
    77   1 101.378088506 80.324884370 60.857155922
    78   1 97.522071602 80.992331312 96.268738556
    79   1 97.460869406 1.225670620 19.863668575
    80   1 100.057687210 1.457189951 59.974908904
    81   1 100.114792036 2.159912812 100.130277435
    82   1 19.515618433 18.071762253 38.547156873
    83   1 19.870450544 20.822048498 79.244877324
    84   1 19.627278349 21.414468064 118.678501458
    85   1 18.693241903 60.407203211 42.358812666
    86   1 22.240691191 55.765548153 82.205103251
    87   1 21.555164590 63.103718561 117.214684085
    88   1 19.549530121 98.365778608 41.580761666
    89   1 19.395822087 98.609330703 80.575106373
    90   1 19.848648557 98.763395673 118.653339949
    91   1 56.154710625 17.843540747 41.046047203
    92   1 59.231372385 21.345805165 78.735642972
    93   1 60.285936685 22.086672150 116.814948359
    94   1 57.641472906 60.860876886 41.805637062
    95   1 61.988604051 58.279089224 79.042449923
    96   1 60.563013631 58.580115637 118.284979948
    97   1 60.544262914 99.653925099 41.731110256
    98   1 58.588171036 96.005580617 78.011110939
    99   1 60.854666180 97.698810361 118.669476592
   100   1 99.171351486 17.836782008 39.024746714
   101   1 99.723156696 18.398169045 79.273897999
   102   1 100.964805858 18.970278941 0.638813851
   103   1 97.825520582 54.765342850 33.998403118
   104   1 100.121178641 61.700689250 80.480166252
   105   1 100.530990793 60.182770220 117.486175754
   106   1 102.683320013 96.666355574 41.501566168
   107   1 98.890635355 104.538667927 81.210148380
   108   1 97.746991133 99.677652389 117.097675077
