data.94 (written by ASE) 

108 	 atoms 
1  atom types
0.0 10.911092153  xlo xhi
0.0 10.909945606  ylo yhi
0.0 10.911179240  zlo zhi
0.005998722 -0.005015041 -0.005921913  xy xz yz


Atoms 

     1   1 13.666220256 59.775948347 100.357930240
     2   1 15.026160079 61.371276691 56.695600602
     3   1 33.134065728 75.794095806 49.508008768
     4   1 24.515767778 34.422256076 5.418315355
     5   1 80.276299842 94.045020256 43.047771705
     6   1 35.822742271 49.291547093 67.966990817
     7   1 52.496090616 11.427313461 43.391093338
     8   1 99.988357249 75.795366998 87.957135670
     9   1 76.751899635 58.835823928 95.625271497
    10   1 31.302198309 69.937240202 83.753568662
    11   1 80.752257035 33.111811855 72.449399275
    12   1 87.295995969 20.030994120 41.526882318
    13   1 77.415993555 115.187001218 113.322813877
    14   1 11.899094601 106.687069317 113.730534417
    15   1 0.929950324 6.657987936 99.382550692
    16   1 47.313483464 94.204315060 100.657970061
    17   1 23.353631952 7.149295472 6.899912987
    18   1 70.333004597 82.806459846 86.326877060
    19   1 113.599061797 52.028532619 44.570925509
    20   1 47.596488208 114.964881168 76.946893142
    21   1 40.809921867 108.228491583 55.131105275
    22   1 11.778353874 106.613349740 63.805536960
    23   1 112.152770746 75.872316909 8.679052333
    24   1 15.349023505 20.234438074 26.125586761
    25   1 75.896120126 20.358896138 4.056664433
    26   1 53.486005552 65.118181441 94.969307937
    27   1 108.086448985 97.195292736 28.596220888
    28   1 102.774513703 116.472484972 73.640424444
    29   1 99.056091128 114.043371224 36.601051387
    30   1 2.953523763 20.766840994 79.644845986
    31   1 90.086965179 38.121251914 13.976854420
    32   1 104.908590692 52.485147461 117.330236558
    33   1 36.565868611 44.643121708 92.874155205
    34   1 1.687798550 83.574437570 103.183766449
    35   1 60.617166718 39.478970784 108.098598258
    36   1 35.236247422 84.715016635 28.940896549
    37   1 23.587735322 7.256536871 50.106991249
    38   1 3.192500125 68.770355766 78.607687111
    39   1 101.893202157 57.057655271 64.311864359
    40   1 40.540367558 117.100669053 102.881872055
    41   1 86.711584426 56.464130182 27.353792019
    42   1 87.401725748 42.143414139 104.321908224
    43   1 62.908508855 34.821774770 34.028962920
    44   1 20.466756789 92.626960788 89.710715140
    45   1 61.962014511 18.145397208 71.960653321
    46   1 28.839318761 20.109183227 104.051001721
    47   1 76.672208985 62.154465993 117.677391110
    48   1 112.855966086 5.682034330 52.546587005
    49   1 36.789512573 58.488265980 114.484687362
    50   1 20.883788037 2.036796755 87.488245356
    51   1 106.900789151 31.882961145 62.831238929
    52   1 17.251026069 92.762545612 42.096551380
    53   1 77.190052478 56.706737006 67.870497981
    54   1 101.881309634 11.131157303 21.711358978
    55   1 56.645072491 0.307608909 15.929507115
    56   1 107.511477025 27.059049112 1.845169800
    57   1 74.599618342 6.629540146 28.546694958
    58   1 15.193208802 87.440295588 11.982034813
    59   1 92.041250862 100.342899150 96.253377771
    60   1 45.120905266 57.589651276 42.261642325
    61   1 103.501404610 45.798926196 87.293188772
    62   1 1.471979654 12.122204333 8.499259806
    63   1 108.501011668 100.402898430 3.029509934
    64   1 117.082914482 105.529770846 89.387269382
    65   1 103.803017746 72.991374537 44.673941380
    66   1 29.299596352 22.593796709 72.605070931
    67   1 31.848384624 113.645189588 28.992832596
    68   1 88.656607126 81.391200187 21.028093766
    69   1 58.993230133 44.071840112 81.382608224
    70   1 8.499112598 115.655394790 27.531445152
    71   1 5.906298199 32.817173863 107.624237845
    72   1 56.266813861 40.071596580 58.332453397
    73   1 23.107876520 46.235898004 32.641110030
    74   1 112.368439632 51.533101636 20.522653755
    75   1 98.546267308 5.589100392 114.343447552
    76   1 71.476394415 114.599114525 53.256076337
    77   1 52.891304850 77.948348849 117.739993774
    78   1 108.789352311 96.252412347 51.968813735
    79   1 11.668771973 45.548558241 82.349322063
    80   1 62.760495018 96.969547386 64.692383384
    81   1 61.665137362 60.016028561 20.962925518
    82   1 67.697791966 89.951101285 14.736565372
    83   1 88.979696766 39.821954851 48.322272071
    84   1 37.732257803 64.234348725 16.783205273
    85   1 56.397183600 101.796098866 35.504387847
    86   1 40.632267652 92.239605898 77.067071904
    87   1 98.174294788 21.385089425 87.717356499
    88   1 25.744375250 80.702381539 111.620777723
    89   1 40.730854875 100.578808252 8.314884035
    90   1 94.752959038 78.634304741 111.811502526
    91   1 60.326950088 16.233512855 96.440856315
    92   1 35.363563091 33.186836935 46.500776455
    93   1 50.000842838 14.308665839 0.061521816
    94   1 51.321510671 66.250233383 64.509178015
    95   1 88.404361108 105.725052539 14.679559365
    96   1 82.067821827 8.268512306 93.513842795
    97   1 72.507018534 89.174748720 110.902508865
    98   1 59.439984882 79.026062238 46.164705716
    99   1 113.028824209 24.711224502 37.188957674
   100   1 51.979344527 38.338747707 11.502455646
   101   1 19.458053278 83.864756751 64.781661476
   102   1 87.824320026 80.418391621 65.112246025
   103   1 86.724407459 11.735944021 64.236753289
   104   1 41.187627351 25.165393712 25.634582037
   105   1 13.116231181 29.007473876 54.343676126
   106   1 10.112523817 71.655185026 28.433311864
   107   1 77.883621341 109.950780914 76.678298406
   108   1 11.219874036 59.661872493 5.047499694
