data.74 (written by ASE) 

108 	 atoms 
1  atom types
0.0 10.911092153  xlo xhi
0.0 10.909945606  ylo yhi
0.0 10.911179240  zlo zhi
0.005998722 -0.005015041 -0.005921913  xy xz yz


Atoms 

     1   1 7.357214061 39.398964401 100.240926314
     2   1 8.360827194 77.995695209 65.593202310
     3   1 33.917308451 84.236869068 58.577944252
     4   1 26.021643737 29.652288081 10.617504883
     5   1 85.494122852 87.287041358 43.685144435
     6   1 31.947467749 52.714259000 60.118888370
     7   1 61.871444625 12.404299082 49.069406415
     8   1 89.585455613 67.123391871 98.105362940
     9   1 80.764540788 39.687407541 103.455055629
    10   1 18.212846775 60.564137793 90.501329638
    11   1 79.595111741 44.792859309 77.519333426
    12   1 84.188347618 21.388507989 40.188695103
    13   1 65.339235150 116.566323331 97.461792320
    14   1 2.639434032 101.441481963 114.740545619
    15   1 3.364022811 118.241067313 94.983881936
    16   1 53.209035087 96.367694773 105.361354859
    17   1 20.366088466 2.471134212 8.522003546
    18   1 66.300977543 90.134542705 86.192366636
    19   1 116.340707441 53.770294774 42.520518771
    20   1 50.563139413 0.354830663 80.464914251
    21   1 36.370140961 5.559159157 52.180597345
    22   1 10.584489283 117.384499966 62.398740481
    23   1 112.302638237 67.787503008 22.552661593
    24   1 21.429141970 13.325642945 33.139761902
    25   1 67.504236509 5.043916796 21.650577137
    26   1 63.379837091 64.449104593 100.062531066
    27   1 111.321826342 99.790533376 24.908134384
    28   1 108.762750668 108.443167307 72.984970430
    29   1 91.374208650 116.673805210 22.018707112
    30   1 14.257154714 25.538310012 66.416613249
    31   1 78.026447128 39.551494067 11.098257754
    32   1 104.990157276 50.235873878 113.204538400
    33   1 29.345127199 40.103542261 84.344493686
    34   1 10.704464770 81.842490407 106.229767789
    35   1 54.958757758 44.910466478 0.745652820
    36   1 43.271309855 80.503455419 22.202352762
    37   1 39.173431242 29.243561735 48.535675173
    38   1 113.922842906 65.718891101 91.714845549
    39   1 103.075404207 62.952354673 65.168048451
    40   1 44.867439824 2.127684554 110.166803306
    41   1 91.879679674 53.040328854 27.340297328
    42   1 69.853410587 22.260372989 111.038133039
    43   1 68.355449240 38.815969807 33.572840301
    44   1 27.214995954 104.165790361 97.596167904
    45   1 84.888653762 21.893682229 63.610267996
    46   1 23.000449836 14.686724358 103.959955675
    47   1 84.188494632 64.696896260 118.964171733
    48   1 114.299879799 2.411824097 32.929178661
    49   1 32.380312520 47.327167039 109.781453249
    50   1 27.865114428 11.338897352 80.196397151
    51   1 105.350636449 34.973356773 66.813219695
    52   1 12.046208702 97.921257188 47.420945178
    53   1 68.230420627 66.278351305 74.765852634
    54   1 90.999425569 20.827439185 10.318603455
    55   1 49.597980780 106.592761323 12.042858657
    56   1 104.422383445 21.740118386 106.191323152
    57   1 66.812739564 108.126561085 36.789328401
    58   1 6.377824647 86.184242553 15.859945424
    59   1 101.085416601 89.523574713 91.022557146
    60   1 47.035300282 62.544044486 40.035935206
    61   1 100.866513065 45.139963581 90.198955813
    62   1 5.450242982 23.342446320 118.056319949
    63   1 98.991765923 100.796699891 3.137362851
    64   1 5.196523295 91.552785050 84.369943534
    65   1 110.346994508 81.507898133 49.662405792
    66   1 49.426727481 27.149230678 73.195522545
    67   1 22.867678237 102.808087920 26.690815167
    68   1 90.129220350 82.148305067 20.635914408
    69   1 61.451755270 41.981499220 91.453373463
    70   1 115.698354771 5.021450949 7.339838737
    71   1 117.867904485 21.240913849 86.244854605
    72   1 62.473096245 47.054927066 60.045425157
    73   1 17.371398126 39.972465453 35.710042050
    74   1 4.018840749 43.674446973 14.862849709
    75   1 92.492135076 115.150782331 105.710985333
    76   1 84.075662210 117.612427223 53.204838705
    77   1 61.163189125 78.424411506 3.124623816
    78   1 106.586463663 103.281918059 48.212365075
    79   1 7.723852575 55.599125434 70.405062198
    80   1 65.765517197 105.287103803 63.017236169
    81   1 75.529041505 66.800531108 48.213335817
    82   1 65.339224892 84.993042822 26.785845969
    83   1 90.463916427 46.914155266 49.231122805
    84   1 36.202437006 56.030501670 16.851934120
    85   1 43.589201665 102.542064239 39.408048676
    86   1 33.274122961 83.581382438 84.905081870
    87   1 90.837330851 15.319141464 85.707248418
    88   1 37.721593128 71.522543417 105.713874967
    89   1 27.460514181 94.240197323 1.648361421
    90   1 110.899886703 75.817390334 118.215465979
    91   1 48.603408158 20.724260021 97.133010799
    92   1 44.969915308 37.321506526 28.019348816
    93   1 49.726747009 18.705689643 5.230483165
    94   1 41.231990215 62.605393948 81.172610414
    95   1 74.233639717 105.420613866 5.848040668
    96   1 67.148748663 16.277604402 79.678374101
    97   1 82.446732713 89.712891472 108.668603990
    98   1 57.088517141 83.920319878 53.638281292
    99   1 107.230210277 27.551008504 24.175477653
   100   1 66.851788572 62.824410158 22.166342522
   101   1 27.078005895 106.029894309 74.744389849
   102   1 89.106882096 82.638762977 68.321451972
   103   1 108.047923413 9.427829035 61.285194681
   104   1 45.224897710 11.123118373 27.312217532
   105   1 116.999325466 27.719970593 46.209659499
   106   1 16.983281498 73.895684100 42.804803984
   107   1 83.760251469 109.859484618 77.779751840
   108   1 12.956814529 58.507991779 115.422107513
