data.76 (written by ASE) 

108 	 atoms 
1  atom types
0.0 10.911092153  xlo xhi
0.0 10.909945606  ylo yhi
0.0 10.911179240  zlo zhi
0.005998722 -0.005015041 -0.005921913  xy xz yz


Atoms 

     1   1 116.431877775 0.181645541 118.845656640
     2   1 118.572471372 0.308147423 41.254264814
     3   1 118.530627819 0.974033764 79.541268437
     4   1 1.338036858 40.148336086 118.702697428
     5   1 118.994424420 41.988125939 40.645355672
     6   1 1.283261674 41.042950042 78.335616912
     7   1 118.827300666 80.862038676 0.134738676
     8   1 118.285554221 79.517116892 38.800939794
     9   1 118.746808536 79.293547743 79.659756880
    10   1 38.191071339 117.633775323 118.261437536
    11   1 39.077160806 117.727739513 40.969226904
    12   1 42.558656775 117.975646522 78.518847271
    13   1 39.968688692 39.636134253 118.317700524
    14   1 38.593105223 39.285119054 38.498544295
    15   1 40.769308893 38.780218690 79.706863012
    16   1 40.289884755 80.129341106 118.063547579
    17   1 39.604118010 79.765306966 37.888705755
    18   1 41.753340155 79.661565076 81.001084794
    19   1 79.574550442 1.148977626 1.953500603
    20   1 79.038215163 1.662204002 40.803462602
    21   1 78.740946617 118.654195649 78.780910863
    22   1 80.133029579 38.353539332 118.026707279
    23   1 79.242619177 40.815013937 38.640110416
    24   1 77.739530770 38.559217277 80.306689080
    25   1 81.382656437 79.332231577 0.270047251
    26   1 80.210988126 79.083605767 39.267507946
    27   1 77.745258560 78.982658527 78.546569332
    28   1 37.897654026 19.333327728 19.907055893
    29   1 38.599632716 19.792553780 58.248594507
    30   1 41.563599169 18.409289711 98.917356813
    31   1 38.700141048 59.489110658 19.182364176
    32   1 39.694101079 59.624508168 59.197959793
    33   1 41.351077929 59.353780886 100.538658885
    34   1 40.231676388 98.795552331 17.516558813
    35   1 39.518561106 98.223139963 60.742418311
    36   1 40.707088965 99.007149800 99.378096190
    37   1 80.701383636 20.229857296 21.187915665
    38   1 78.387751967 21.167958248 59.694041394
    39   1 78.871999214 19.137103498 100.079637154
    40   1 80.976235550 59.713517725 19.106141559
    41   1 77.448305489 58.781888332 59.031056292
    42   1 79.653649929 59.093620644 100.697990015
    43   1 79.917190670 100.523272066 20.285859049
    44   1 79.262021019 97.089270852 58.803476039
    45   1 79.360729921 99.984099083 99.421350688
    46   1 0.385773278 18.311960233 19.902826571
    47   1 118.548239330 20.382954656 60.171748464
    48   1 0.096212202 20.096899235 99.709469527
    49   1 118.794058349 59.900105165 18.972937919
    50   1 0.608816947 59.809734327 60.037771422
    51   1 1.186434570 59.573807253 99.980898935
    52   1 0.423284194 100.436407972 21.554650616
    53   1 118.361035634 99.181773677 59.442975410
    54   1 118.954045727 99.833562379 99.361803462
    55   1 20.658631334 40.160365045 17.807618540
    56   1 20.755868291 38.872873354 59.654493348
    57   1 19.466228683 40.032831762 99.931072418
    58   1 19.740437221 79.550796922 18.413725797
    59   1 20.221824393 79.559628356 58.503915248
    60   1 19.053624313 79.333952107 99.078229509
    61   1 19.030573594 118.475138687 20.519591870
    62   1 20.014494608 117.170285721 60.800630107
    63   1 18.500773981 0.883818615 99.923588152
    64   1 59.670668991 38.918370034 19.688078983
    65   1 58.103831837 39.843902803 58.981766348
    66   1 59.332141431 39.260154840 98.969666778
    67   1 61.277460711 78.503466905 18.655811238
    68   1 58.575626674 79.241146605 58.440861970
    69   1 60.950254902 78.700218637 100.676543346
    70   1 59.250576226 0.086674742 19.695053619
    71   1 59.585156674 118.526774901 58.718742097
    72   1 59.673728736 117.651001861 99.679875331
    73   1 99.607323841 39.020536695 21.804540352
    74   1 97.602254601 42.336647206 59.047859041
    75   1 99.963834997 40.754065227 97.646779791
    76   1 99.850979371 80.488270445 19.039049629
    77   1 98.783267544 77.812826689 58.654954116
    78   1 97.999463521 78.592752945 97.796805085
    79   1 100.795070160 0.486948503 21.913357675
    80   1 98.387649547 118.847331966 60.221407704
    81   1 97.875457241 118.506192626 99.931390593
    82   1 17.757331689 19.350775928 39.296000468
    83   1 20.427544619 21.312909984 80.570733364
    84   1 19.150038932 19.004526968 0.258639794
    85   1 19.723441730 58.720973705 40.559160525
    86   1 21.203828826 59.414314887 79.359166750
    87   1 20.277812042 60.521431648 117.869682308
    88   1 21.239372432 98.517051577 38.529268265
    89   1 20.815123736 98.598990499 80.108602104
    90   1 18.810031897 99.112104324 118.727322439
    91   1 58.250864323 20.116207172 38.694681098
    92   1 59.295157800 18.712824534 78.711088441
    93   1 58.610827792 19.153090375 0.445075414
    94   1 59.348430091 59.383984382 39.844361441
    95   1 60.517832364 58.906006679 79.256606427
    96   1 60.777298152 58.014185073 1.535077256
    97   1 59.586250022 97.587099199 38.081887086
    98   1 61.484425155 98.891344894 78.528598249
    99   1 60.896913570 99.285382175 0.347570218
   100   1 99.846053877 20.688130126 41.109426552
   101   1 98.081997746 19.668957743 80.045074336
   102   1 98.570795766 21.638226865 116.726400714
   103   1 99.844328847 60.690365465 37.977681789
   104   1 99.298729435 59.213195103 77.977597122
   105   1 100.733227554 59.739812741 0.044628343
   106   1 98.932793972 99.706004395 40.296340167
   107   1 98.251267862 100.026945921 80.127476555
   108   1 98.815822082 98.558328898 117.306968628
