data.105 (written by ASE) 

108 	 atoms 
1  atom types
0.0 10.911092153  xlo xhi
0.0 10.909945606  ylo yhi
0.0 10.911179240  zlo zhi
0.005998722 -0.005015041 -0.005921913  xy xz yz


Atoms 

     1   1 1.490058633 1.129401657 1.397941714
     2   1 118.023576636 0.517729016 40.861287738
     3   1 118.303749952 118.061692336 80.073592427
     4   1 116.941345723 39.511248081 118.805988153
     5   1 0.134730668 39.114636344 38.784541533
     6   1 117.545976992 42.030065487 80.043282928
     7   1 119.066243884 79.597038887 114.580306697
     8   1 3.266464687 78.193710260 40.676285023
     9   1 3.266486273 79.410467674 79.594312844
    10   1 35.863224050 3.460534953 0.974904647
    11   1 37.940177081 117.715927442 38.170562902
    12   1 37.622528127 0.698775614 79.008575760
    13   1 36.411903400 37.552830204 118.493331731
    14   1 43.754255620 38.326631801 37.992975475
    15   1 40.193083860 36.016039641 79.081094964
    16   1 38.932929204 79.638373708 0.699532566
    17   1 43.208922681 79.240953840 39.935534989
    18   1 40.545447154 79.754230614 79.131254465
    19   1 78.274057968 1.221354130 117.733167510
    20   1 80.161032762 3.655557588 40.565424186
    21   1 79.309923570 1.288643339 80.817523352
    22   1 77.998700674 40.380917542 116.065653150
    23   1 79.708258553 39.246858209 40.789668325
    24   1 84.739248227 40.815261099 78.318097139
    25   1 75.504115167 78.262438969 117.780265869
    26   1 77.039561363 80.457206865 37.895053822
    27   1 76.586294045 80.005746188 80.206156955
    28   1 39.359382212 19.851350696 22.944356027
    29   1 39.701470703 19.680547329 58.471850935
    30   1 39.094777403 20.609612899 98.054872029
    31   1 40.156604799 57.744506877 19.450631383
    32   1 41.890806049 56.633822279 61.201414830
    33   1 39.653173024 56.243467435 97.727528268
    34   1 40.152639716 97.914981799 20.823792251
    35   1 42.577767650 99.860265978 59.371124325
    36   1 39.636999411 99.024747925 98.753069807
    37   1 79.949712897 19.534740684 19.213297598
    38   1 80.643405202 19.980350128 63.125136711
    39   1 80.337239643 22.599043171 97.589099065
    40   1 77.474250780 58.793921241 18.877047607
    41   1 79.269564548 62.586545280 59.319955857
    42   1 77.310443925 58.037775808 99.522673972
    43   1 78.570045579 99.838439130 16.469508670
    44   1 76.581817484 100.196815692 62.329633678
    45   1 79.111479076 99.820279654 99.711450139
    46   1 116.633948592 20.954788969 20.423348882
    47   1 118.381360963 20.505744677 60.913939950
    48   1 1.934732543 17.002272036 101.111804832
    49   1 118.518509211 60.515865069 21.103793552
    50   1 2.003966136 57.572508769 60.688377733
    51   1 1.154702753 59.872199507 98.241494630
    52   1 118.579073495 98.583566134 20.804883476
    53   1 1.558576763 97.273029672 60.373099224
    54   1 117.764290383 98.458526060 98.553887633
    55   1 18.940179590 42.389480920 19.379304448
    56   1 21.177606586 37.194104541 58.363476561
    57   1 18.959254203 37.201023612 100.003440731
    58   1 22.253557167 76.773803656 19.686762493
    59   1 24.730695039 78.886235817 59.706199296
    60   1 22.099511628 78.650542472 98.341447819
    61   1 20.250767384 116.793128898 22.129789119
    62   1 21.530602215 118.673082296 59.772278880
    63   1 20.778672913 116.172318818 98.385986652
    64   1 62.405845452 37.868050763 19.077955254
    65   1 61.764263937 40.715213010 60.674818278
    66   1 58.753281450 38.523737707 98.307559861
    67   1 58.421503865 79.744590245 18.820030471
    68   1 60.240209300 80.690059610 59.320666078
    69   1 57.707603378 82.362574533 98.890120670
    70   1 59.282475170 0.388992011 18.618866671
    71   1 57.676448080 1.003410001 57.214966507
    72   1 56.763324901 0.305219546 98.844236578
    73   1 99.658624616 41.377603947 19.433352964
    74   1 100.328878242 41.616847482 60.225628977
    75   1 99.499366557 42.212130276 102.278823761
    76   1 98.579827524 80.161146711 19.108743517
    77   1 98.023485193 78.965909279 56.992567598
    78   1 97.515275977 78.975701946 97.943375094
    79   1 98.428683713 118.853168946 19.860122776
    80   1 102.446876874 117.698026205 58.433882274
    81   1 100.189093439 117.927747843 99.883614764
    82   1 17.693075943 20.565863259 40.061243871
    83   1 16.255195141 18.552042648 78.229265300
    84   1 17.570316322 22.567798469 3.396524243
    85   1 25.476536940 59.844667498 40.850564749
    86   1 23.121584785 55.683150485 78.314779136
    87   1 20.802704339 59.344552450 0.431599235
    88   1 21.329553873 98.796524168 42.700839475
    89   1 21.132276124 100.254039870 77.074424669
    90   1 18.737988550 98.478233402 3.906974132
    91   1 61.584826695 19.644991998 38.014083377
    92   1 60.474758427 18.368923771 78.331546485
    93   1 57.833348407 20.687197495 117.611876208
    94   1 60.621007844 56.217194989 38.673767137
    95   1 61.575943561 60.471324734 81.238945286
    96   1 58.915604820 59.360432234 117.232163849
    97   1 60.252788315 101.977484360 38.815189344
    98   1 59.110023196 101.864514461 78.973218673
    99   1 52.134494901 100.734042662 118.364560004
   100   1 99.022112610 19.946050792 41.888343523
   101   1 100.029837173 21.619085083 83.351864294
   102   1 99.358991547 17.288692629 117.044128946
   103   1 97.000143679 60.225804247 35.125283351
   104   1 99.318375926 61.420011246 79.626119330
   105   1 97.970529968 61.561666366 0.212418414
   106   1 100.476693355 97.963957774 40.458488861
   107   1 99.199618488 93.668568293 77.642980238
   108   1 96.547558541 100.651192215 0.610338675
