data.70 (written by ASE) 

108 	 atoms 
1  atom types
0.0 10.911092153  xlo xhi
0.0 10.909945606  ylo yhi
0.0 10.911179240  zlo zhi
0.005998722 -0.005015041 -0.005921913  xy xz yz


Atoms 

     1   1 0.266755838 0.968957421 2.925694148
     2   1 116.955921174 0.010482522 37.048046056
     3   1 0.510788733 118.042114432 77.986442245
     4   1 117.875413656 41.927920802 117.361791803
     5   1 1.400623370 38.611864738 39.884765820
     6   1 3.215513468 39.431917059 80.097361024
     7   1 115.706995711 79.821548986 116.068710884
     8   1 116.405334822 80.034325320 38.294949456
     9   1 117.651956597 81.766089084 80.764333189
    10   1 40.397808532 118.858366884 118.621087151
    11   1 41.189003086 117.452830621 36.722708696
    12   1 42.667881732 0.275963939 81.253507636
    13   1 38.616729144 40.451603002 118.727781733
    14   1 38.169137488 40.846944521 40.994688142
    15   1 39.560520062 37.803184539 79.819978319
    16   1 38.895991173 77.204520210 117.355857280
    17   1 40.460338104 79.377996514 40.076135965
    18   1 39.383386877 79.633938288 78.831123939
    19   1 77.941789665 118.113172653 1.668757192
    20   1 78.770793851 1.672574768 40.117115666
    21   1 80.884121501 118.049915277 79.403500307
    22   1 76.682651398 39.631118115 2.335043703
    23   1 80.281405124 40.388826743 40.086605994
    24   1 81.731169944 41.034859185 77.014292812
    25   1 80.081580744 78.834163126 118.806833766
    26   1 79.519454102 78.050756950 41.118601305
    27   1 81.256527725 75.897202316 77.744921155
    28   1 40.949507487 21.138246870 22.766727333
    29   1 37.236249943 17.207649213 60.875640874
    30   1 39.280664221 19.494622625 98.394575808
    31   1 41.323784793 58.528983077 20.821883425
    32   1 37.159997812 59.950044781 59.640161309
    33   1 40.451685795 59.289622419 97.693125935
    34   1 40.795603051 99.542044457 19.353132888
    35   1 40.116827441 100.478662185 60.372805248
    36   1 39.089776497 97.506384134 97.322404082
    37   1 79.323506964 18.651958527 20.454843098
    38   1 79.225653405 18.918064163 61.536401158
    39   1 76.664484583 22.996980471 99.068267059
    40   1 79.335925179 59.683059645 20.617704767
    41   1 79.593227153 59.292898907 60.075799887
    42   1 80.204909407 58.223586673 99.285159095
    43   1 78.777916969 97.432693730 20.807372159
    44   1 82.529814726 97.553026758 58.753505672
    45   1 80.090164985 102.219316605 99.838872094
    46   1 0.063938204 19.578090322 22.239670862
    47   1 0.916003151 18.494079542 61.117719880
    48   1 117.484855920 21.040161263 100.415518403
    49   1 1.361472695 62.372554214 17.396558569
    50   1 2.748695856 59.638703222 56.948029766
    51   1 118.608744280 59.663049552 97.400558309
    52   1 117.457026800 97.001989154 19.831087584
    53   1 118.234000779 99.444982543 58.271996850
    54   1 118.705939888 101.534182577 98.770368919
    55   1 18.960813786 39.446730104 19.250051414
    56   1 19.456475340 39.482206998 60.467302194
    57   1 19.814177110 39.661437210 100.426139701
    58   1 20.012581226 81.417850776 20.829856151
    59   1 20.658208813 78.579043574 58.360548747
    60   1 18.163111340 78.655649586 99.019718030
    61   1 19.344038771 118.751096928 21.955444090
    62   1 17.924584682 117.361953607 57.008670664
    63   1 20.357449805 118.286163089 101.152915249
    64   1 59.342376099 40.540499961 21.384699854
    65   1 59.697368074 39.094918060 59.983397075
    66   1 59.134186699 41.444243986 96.876797487
    67   1 61.023347876 79.685749701 18.238122068
    68   1 61.780248176 81.109540392 60.361927631
    69   1 63.225165835 80.494311019 97.825566866
    70   1 59.459788276 118.684006249 19.687758701
    71   1 60.491196729 0.278205585 59.359296693
    72   1 62.194011020 1.416692384 101.476512427
    73   1 100.414188874 37.261446234 19.815972954
    74   1 100.423861758 39.483755554 58.271998242
    75   1 99.564006768 38.410325766 96.295664903
    76   1 100.686396757 78.751049422 19.740239799
    77   1 100.085794469 76.363682668 58.858723669
    78   1 98.024732017 81.051286330 98.174884070
    79   1 97.216321864 0.596331367 19.944840900
    80   1 97.410272285 118.300727436 58.308482674
    81   1 98.279648970 118.493659301 97.803720168
    82   1 20.738962642 21.957620132 39.887294168
    83   1 20.801944918 18.555177071 81.007080072
    84   1 21.842872171 17.433893900 3.244480759
    85   1 20.770284055 61.653084038 36.389014942
    86   1 20.461805875 61.579144550 80.075156227
    87   1 18.034449253 59.621552278 117.936085968
    88   1 18.448671279 98.809309265 39.759146678
    89   1 19.750892827 102.345074727 79.541434214
    90   1 17.388860740 99.103801868 0.027410465
    91   1 60.169959347 20.810861042 39.109515186
    92   1 61.626441920 17.509564130 82.032985151
    93   1 56.579124548 19.932169556 1.452900775
    94   1 59.568223041 59.862322010 39.902337260
    95   1 57.947019338 61.109453002 77.025881477
    96   1 58.929535805 59.134457389 0.235489324
    97   1 58.814071367 97.344945822 40.372016107
    98   1 59.994580258 100.982999896 82.046069007
    99   1 58.801719690 98.568895736 118.452436824
   100   1 99.965930637 19.102772080 40.961652439
   101   1 98.937837862 17.097351026 78.347059372
   102   1 97.710626668 19.349768823 117.251517235
   103   1 101.362487517 58.985485449 36.987619450
   104   1 101.197187231 57.563278592 78.572293438
   105   1 98.026362064 57.231861783 2.557006380
   106   1 96.894005083 101.697651612 38.377525611
   107   1 100.079577145 98.179367660 78.232540186
   108   1 100.034855214 102.327672729 0.415554358
