data.61 (written by ASE) 

108 	 atoms 
1  atom types
0.0 10.911092153  xlo xhi
0.0 10.909945606  ylo yhi
0.0 10.911179240  zlo zhi
0.005998722 -0.005015041 -0.005921913  xy xz yz


Atoms 

     1   1 1.553472274 118.892749384 2.417767221
     2   1 118.006235832 0.090280112 38.711177842
     3   1 118.087055002 0.668699989 79.815461719
     4   1 118.313222810 39.722490535 0.435404766
     5   1 118.788409775 40.458670059 39.694921229
     6   1 117.674576276 37.505136818 80.047345558
     7   1 119.046575221 80.181103882 0.101434158
     8   1 0.419800227 77.543505306 38.630697010
     9   1 1.555157292 80.561310697 80.961807951
    10   1 38.923422837 118.683168564 2.370703113
    11   1 41.662885287 1.984029171 39.092400786
    12   1 38.587573185 1.189979632 78.606773437
    13   1 39.460026531 39.962159110 118.737541142
    14   1 40.158817000 40.200809941 39.783108911
    15   1 40.215074596 38.785630597 79.823549435
    16   1 39.433159775 78.198246895 118.944201392
    17   1 38.357226025 77.998442995 40.792650114
    18   1 40.117881102 79.741430843 76.617279733
    19   1 79.313058484 118.674166391 0.096788579
    20   1 78.901677588 0.683210622 38.166538572
    21   1 79.741411879 1.033703925 78.813906905
    22   1 77.038446404 40.595417184 117.576532777
    23   1 80.481107045 39.863557923 40.530988924
    24   1 80.784882585 38.268449536 78.305343229
    25   1 78.827714263 81.898531049 116.575988852
    26   1 79.968127850 78.474931143 39.872147852
    27   1 79.971035945 80.781740295 79.003165464
    28   1 40.725087016 21.130199028 19.392373876
    29   1 39.039611611 20.523672281 60.339770921
    30   1 40.384421250 19.112987022 98.459755137
    31   1 39.496713269 59.670094591 18.846882457
    32   1 41.138217732 57.740701939 59.576790128
    33   1 39.286312180 58.748469188 98.675315666
    34   1 39.513451981 97.422181746 21.973222599
    35   1 38.884190868 98.870523631 57.240152946
    36   1 40.029525655 99.470058041 99.793416129
    37   1 79.494418228 18.937088853 19.684688907
    38   1 80.431790418 20.320786115 59.142461477
    39   1 77.034197858 17.700555359 99.225502522
    40   1 79.943284872 62.058210753 19.138917398
    41   1 79.413545323 58.479178191 61.050422166
    42   1 80.272143369 61.177920783 98.906362883
    43   1 81.056344106 97.611070647 19.134712769
    44   1 80.371474623 100.252250467 59.098527384
    45   1 76.599536029 99.887785635 99.240162585
    46   1 117.931448722 20.192837394 19.218817645
    47   1 116.951356489 19.200635606 58.463154136
    48   1 118.908323826 18.267807614 100.596496672
    49   1 119.012657740 59.450704502 18.890219819
    50   1 0.695200271 59.041749337 62.712692054
    51   1 0.991407580 60.157977276 99.348734053
    52   1 118.132954724 99.187164153 19.465762930
    53   1 1.496663668 100.973857132 60.951388042
    54   1 118.854950976 99.622144515 100.506427914
    55   1 20.486027862 39.779068930 19.440370481
    56   1 19.538531209 37.268738730 60.548588598
    57   1 19.356397367 39.349129861 99.732793044
    58   1 18.655410799 78.702548120 20.503840843
    59   1 18.791009752 79.262788968 60.233157041
    60   1 22.620278931 78.908039734 96.290128903
    61   1 20.103117381 1.858553557 21.806241924
    62   1 20.230303093 1.696195227 57.125248764
    63   1 21.395749302 117.908843090 99.626492039
    64   1 60.816521299 41.495585284 19.166722319
    65   1 60.207622906 38.139354891 58.476340794
    66   1 59.571431586 40.648742393 98.933206334
    67   1 60.105237761 77.201767882 21.326004396
    68   1 60.597757996 79.107174742 58.563583076
    69   1 59.238305412 78.479709944 97.517523820
    70   1 58.810702002 118.465792382 19.976285632
    71   1 59.761111395 118.073423012 58.679024164
    72   1 57.576981814 0.348003338 101.158721519
    73   1 97.468425086 42.014824355 17.331642823
    74   1 99.005200598 39.691509328 60.150254152
    75   1 99.051896347 39.069359498 99.838107668
    76   1 100.395462758 78.640619072 18.375362536
    77   1 99.365277267 78.615702909 61.432609595
    78   1 99.044970930 80.760892347 98.335890595
    79   1 98.471906848 0.575387581 19.497109080
    80   1 99.434537085 117.727002458 59.213982028
    81   1 98.636160497 118.225402677 100.380145183
    82   1 19.176822655 21.290232176 39.456328011
    83   1 18.639719747 18.635119448 80.429667146
    84   1 20.268849116 19.996600132 1.165372555
    85   1 19.134996864 57.936914207 40.174598275
    86   1 19.786075308 58.674959683 79.066394739
    87   1 19.943774187 60.554838853 118.161499532
    88   1 17.377958891 98.740238586 38.727241707
    89   1 21.285635598 99.518394149 79.157837682
    90   1 20.336970846 98.744352857 0.662831131
    91   1 60.340893905 21.201080336 38.799685022
    92   1 59.717429090 19.137419347 78.444102527
    93   1 59.571807464 19.802470992 0.719890954
    94   1 61.042077751 59.507888867 39.848992245
    95   1 61.077920332 59.724458797 78.994581850
    96   1 59.699116046 61.032430822 118.058201461
    97   1 61.726180661 98.816067278 38.492162899
    98   1 58.074816867 99.468850799 80.086956756
    99   1 58.817237332 97.880769472 0.523225768
   100   1 99.431389723 19.978638660 38.645707421
   101   1 99.351133672 18.406679528 80.041366129
   102   1 97.716964822 20.292201038 0.402196161
   103   1 99.159625664 60.056160050 39.129709905
   104   1 100.440648394 60.084735317 80.124091899
   105   1 99.407441563 59.343475237 116.895212020
   106   1 99.838996468 97.205432597 40.835879730
   107   1 98.443381300 99.534641162 80.583631415
   108   1 99.976469328 99.575164655 118.423798686
