data.29 (written by ASE) 

108 	 atoms 
1  atom types
0.0 10.911092153  xlo xhi
0.0 10.909945606  ylo yhi
0.0 10.911179240  zlo zhi
0.005998722 -0.005015041 -0.005921913  xy xz yz


Atoms 

     1   1 1.179566662 116.335998553 116.555849357
     2   1 1.840378887 118.039989225 38.259840470
     3   1 118.335389338 3.319342711 75.807510924
     4   1 117.323063075 38.735961952 0.936063917
     5   1 0.847350256 42.005303350 40.576191204
     6   1 118.087785340 41.169562409 79.272270229
     7   1 117.395130677 78.730672820 2.237971971
     8   1 118.783965147 80.274782530 40.226564193
     9   1 117.159680566 80.479581243 77.156141426
    10   1 38.915067223 116.855490078 118.641784868
    11   1 37.809545777 116.118913618 40.638165128
    12   1 40.512866370 116.228833124 82.639044430
    13   1 40.956557402 44.866536539 2.516727909
    14   1 40.960314345 40.566045277 36.162116235
    15   1 41.710441251 38.691506590 80.213766823
    16   1 38.700905585 76.772542465 116.751626106
    17   1 42.572010286 81.057180436 41.918159637
    18   1 36.919256368 76.649263085 79.190084824
    19   1 76.667929091 0.288238059 0.083063462
    20   1 78.188315189 0.478897179 38.721768021
    21   1 80.376064039 1.701286399 78.886471095
    22   1 83.455165474 37.859224881 2.224196083
    23   1 80.063388246 40.237745680 36.424574155
    24   1 77.087972741 39.528453934 80.524807372
    25   1 79.109543579 80.925684983 118.841385719
    26   1 77.147071390 79.052108678 39.184524149
    27   1 80.839328734 80.628007166 79.569664933
    28   1 39.013268695 22.008821250 15.727374569
    29   1 40.476725047 23.239759083 57.685832388
    30   1 41.540046531 20.188713291 103.136740457
    31   1 36.955693714 60.964892794 20.338496765
    32   1 41.105193855 60.891566774 60.481928627
    33   1 42.226461112 57.572773780 98.359704855
    34   1 39.796834094 96.622442636 21.529812723
    35   1 38.971810361 97.600171781 62.243323619
    36   1 39.588258075 98.259150894 99.879161283
    37   1 80.999201109 17.602100398 20.968835872
    38   1 76.752818885 19.330555288 58.130827500
    39   1 79.952209971 21.578351292 102.699976165
    40   1 80.222587112 61.058706453 18.546324312
    41   1 79.330755259 58.454352528 58.763450145
    42   1 79.809481297 60.999796165 101.649314620
    43   1 77.845521494 102.530821210 21.305894088
    44   1 77.927186839 97.969665943 58.889806863
    45   1 79.981732870 102.465584612 98.301208464
    46   1 0.703607047 18.753844141 18.702973685
    47   1 117.639879124 20.635544771 58.170258297
    48   1 1.473831631 20.987185621 97.799801808
    49   1 118.051489721 58.000732826 19.961027636
    50   1 0.452821470 60.751235694 60.040308658
    51   1 117.123384856 57.812546619 98.043349731
    52   1 3.920083376 99.298179353 20.630279643
    53   1 118.059214175 100.758610011 57.308814491
    54   1 117.309403338 98.317220737 97.933545905
    55   1 19.288084258 38.737900700 18.856098425
    56   1 18.614175273 39.486164065 59.974923504
    57   1 20.224686496 39.998895160 98.860210432
    58   1 18.980210236 78.569960448 19.611336189
    59   1 18.494823320 79.581557970 58.889717124
    60   1 18.583152268 72.740845517 98.801413006
    61   1 22.046941850 118.724582133 19.929706238
    62   1 20.316494061 117.958055676 59.392728901
    63   1 18.412458369 0.308869068 96.944738332
    64   1 61.284262805 40.644940446 16.899232020
    65   1 61.582965804 40.340429637 59.738032467
    66   1 60.623425701 39.766670863 102.155035372
    67   1 60.411441422 80.327922303 19.731822966
    68   1 58.892570903 78.645692199 61.881337081
    69   1 58.247327345 80.484073233 98.924822106
    70   1 54.734298187 118.854773242 19.755198554
    71   1 58.261903198 1.567377461 57.620364903
    72   1 60.491054736 1.039098995 99.357270849
    73   1 101.923042018 38.327697803 19.800057334
    74   1 98.883741250 39.448189855 59.106221090
    75   1 97.256265064 38.491500184 100.466064774
    76   1 100.601949917 79.574140693 21.018707992
    77   1 98.403836954 79.609754202 56.501541796
    78   1 100.279198523 80.610245574 100.014301763
    79   1 101.916594644 118.946031540 18.943064568
    80   1 97.489991609 0.150390412 58.884360397
    81   1 101.145541408 118.784941302 98.857537795
    82   1 21.740384404 18.670799194 41.445007498
    83   1 25.683509769 19.372302849 79.679919491
    84   1 19.565230317 19.469083488 118.475765329
    85   1 21.071328345 60.595806948 42.238801611
    86   1 20.559280623 57.145340972 78.854596313
    87   1 18.922943946 59.649714646 1.789391953
    88   1 22.301074963 96.119324856 42.128363277
    89   1 16.137587670 98.384334738 78.008140233
    90   1 18.356058683 97.439503015 0.146803622
    91   1 56.019168469 20.660098621 38.588620499
    92   1 59.294272531 18.458830169 78.475142961
    93   1 59.808477648 18.366787704 2.219805632
    94   1 59.233276175 56.839851121 37.967125679
    95   1 59.709363701 59.472157248 79.806461317
    96   1 61.101725645 62.826675097 117.559057481
    97   1 58.935596971 102.024469912 39.967138592
    98   1 60.415765555 99.250453513 80.274818612
    99   1 59.911725848 97.899052576 -0.048031137
   100   1 100.303108449 16.355019872 37.702104601
   101   1 100.614175511 22.748433528 80.023072056
   102   1 102.112352920 18.047748907 118.758493109
   103   1 100.817492638 58.719422566 41.224067637
   104   1 97.469364006 60.711350127 78.483484735
   105   1 99.127968883 61.150840552 118.756718523
   106   1 96.099540757 99.050259416 41.440438467
   107   1 100.492857867 100.772912303 78.107960534
   108   1 97.786273756 98.822240505 117.911496700
