data.93 (written by ASE) 

108 	 atoms 
1  atom types
0.0 10.911092153  xlo xhi
0.0 10.909945606  ylo yhi
0.0 10.911179240  zlo zhi
0.005998722 -0.005015041 -0.005921913  xy xz yz


Atoms 

     1   1 1.514513493 1.958843617 1.721306805
     2   1 117.019648094 0.861098004 38.492392212
     3   1 0.155353586 117.698885013 78.343715130
     4   1 117.412956860 39.281360408 118.672793961
     5   1 117.494222620 39.617527153 39.438459058
     6   1 0.242925455 39.118148928 80.341052975
     7   1 2.631945047 79.899911906 118.620770620
     8   1 117.201143673 78.596272793 39.116120804
     9   1 0.219904536 80.082143807 78.703516688
    10   1 40.219296766 118.492879657 0.112950642
    11   1 40.277355408 0.683592232 39.875807589
    12   1 39.058480264 0.759739013 78.749416876
    13   1 40.706308287 39.920651829 118.018620193
    14   1 40.938738872 40.393679381 39.698593812
    15   1 38.883196540 38.938394472 79.507752769
    16   1 37.813384387 80.217435305 0.488055311
    17   1 40.639777475 79.159920654 39.233151831
    18   1 39.501645956 78.923064291 77.818188355
    19   1 77.286955532 0.690786368 117.852724762
    20   1 81.279203223 118.494635549 39.862095232
    21   1 79.710111330 117.863984663 80.080961656
    22   1 79.756188337 38.986096504 118.595733523
    23   1 79.160714017 40.357832816 40.392391859
    24   1 81.562831339 36.841124837 80.194667680
    25   1 79.035654157 80.800064572 118.708742846
    26   1 79.552279296 79.990229987 41.686611138
    27   1 79.212294420 79.774268069 79.494443415
    28   1 41.948827905 21.437469708 20.374195733
    29   1 40.022335873 20.282562586 59.610364562
    30   1 40.536688180 20.168226751 102.285144679
    31   1 39.279458902 60.305356327 19.038195222
    32   1 38.610644016 59.294083686 58.331449154
    33   1 39.902428978 58.558819608 97.651986998
    34   1 39.592116293 99.568811812 20.694217335
    35   1 39.613023137 98.987111482 57.786568815
    36   1 38.931175144 97.932545021 99.433307790
    37   1 79.782691461 18.679981832 19.481828222
    38   1 77.950886581 18.504199165 60.455488770
    39   1 80.494319302 19.618579486 100.715091896
    40   1 79.392494117 59.054172156 18.550650690
    41   1 80.340444115 60.615626647 60.547858615
    42   1 78.965886911 59.567987439 98.203395390
    43   1 79.720663093 98.628347379 20.096967595
    44   1 78.808053257 99.536881700 59.788003181
    45   1 78.965122794 99.871194883 98.886327881
    46   1 119.026183104 21.394202201 19.389576369
    47   1 0.103917738 20.773745633 59.905126712
    48   1 118.012474556 18.019740387 99.966534080
    49   1 117.682184567 58.489345820 19.069814573
    50   1 0.953552322 59.132763942 59.279250378
    51   1 118.921396039 57.843406687 99.738666094
    52   1 0.381676299 98.645342440 18.170703770
    53   1 0.189519447 100.042621779 59.139661832
    54   1 1.007862928 99.554396160 100.547058300
    55   1 20.343061627 40.596691931 18.512920635
    56   1 18.938493001 39.164713753 59.679457303
    57   1 20.877162233 37.025265129 100.141233190
    58   1 18.716943360 78.677283359 20.999685355
    59   1 19.807634389 79.548563336 58.495658804
    60   1 18.934596556 79.055106078 98.357683785
    61   1 21.498095873 0.297857499 20.299464474
    62   1 18.722578162 118.713357493 57.936547504
    63   1 20.481634793 0.153306239 99.566626947
    64   1 60.850181455 39.931381049 18.860396692
    65   1 60.188502545 39.179252061 60.086702389
    66   1 59.679926857 40.936546360 98.500239748
    67   1 58.532265466 78.965550893 19.712591422
    68   1 58.978146121 78.917192132 59.469715681
    69   1 58.484714142 79.526282307 98.452112833
    70   1 61.677973602 118.812972820 20.234316682
    71   1 57.526400156 0.686466760 59.141974167
    72   1 60.273006546 0.197104083 98.258246974
    73   1 98.201333222 39.108712431 19.654193698
    74   1 99.258112468 39.293513375 59.875696716
    75   1 98.303715275 40.216744295 100.120938985
    76   1 99.804978208 78.874034584 19.684265749
    77   1 99.620332812 80.995465518 61.325957671
    78   1 101.389354035 79.741056903 99.237079859
    79   1 97.020360106 117.708963773 18.543584327
    80   1 99.058862531 117.348359764 57.931555410
    81   1 99.411397373 117.995166152 100.670405055
    82   1 20.063284833 20.775127022 40.034563409
    83   1 18.919954051 19.329242156 81.603865616
    84   1 20.417631353 20.008167639 1.782949021
    85   1 18.915670540 59.825381195 39.322677923
    86   1 18.609748721 58.405970181 79.922840082
    87   1 19.005568615 58.662191000 117.944374826
    88   1 18.759713157 100.884709500 39.891337026
    89   1 21.048642076 98.874443316 78.308847105
    90   1 21.529517702 98.927323593 0.833502155
    91   1 61.309951400 20.734962464 39.034742820
    92   1 59.727843613 19.207891141 79.526139515
    93   1 60.292524753 20.400729135 118.654288849
    94   1 59.289377255 60.258460624 39.870820298
    95   1 59.380673564 59.536643905 79.415604718
    96   1 60.241962861 61.157340957 0.415226583
    97   1 59.979174706 99.954733736 39.487042610
    98   1 58.456114814 100.212077036 78.291404088
    99   1 59.357656507 98.246071766 118.275561551
   100   1 97.867362360 21.215564178 40.403822700
   101   1 99.783358283 18.797296757 80.314184015
   102   1 99.677880816 19.295264249 118.330103428
   103   1 97.921179240 59.363885566 37.620457238
   104   1 101.065851432 59.148968100 80.083119621
   105   1 98.019682687 60.365866995 117.205311278
   106   1 100.884547391 98.375430450 39.148724439
   107   1 99.033474416 98.367473772 81.003181873
   108   1 99.941244279 98.864670082 118.246929241
