data.21 (written by ASE) 

108 	 atoms 
1  atom types
0.0 10.911092153  xlo xhi
0.0 10.909945606  ylo yhi
0.0 10.911179240  zlo zhi
0.005998722 -0.005015041 -0.005921913  xy xz yz


Atoms 

     1   1 117.977861781 0.324328900 118.462110677
     2   1 0.049163335 1.209798214 40.775010218
     3   1 -0.017032547 1.479923212 80.591485844
     4   1 1.236871009 39.812241118 0.866091922
     5   1 1.012975958 39.965026665 41.082367306
     6   1 117.885372871 38.552880230 80.578731663
     7   1 118.310787416 78.730869416 118.109045187
     8   1 0.293727489 79.650685082 40.299222237
     9   1 1.445057329 79.592722509 79.110264058
    10   1 39.822137248 0.514645305 0.488348522
    11   1 39.986292032 0.676503522 39.559023994
    12   1 39.404476374 118.008508493 79.157336086
    13   1 39.391521475 38.123845210 118.852742596
    14   1 38.602019604 38.894335380 39.409632858
    15   1 39.591838443 38.833764331 78.640653090
    16   1 41.566394793 78.834115779 0.248377966
    17   1 39.623395558 78.287397758 39.555180478
    18   1 39.243092007 79.270181550 78.850553440
    19   1 79.183298848 0.268660928 1.503420350
    20   1 79.207486234 0.326593714 39.724410498
    21   1 78.824598497 0.410970097 78.347856201
    22   1 79.775055921 39.800873055 118.088113599
    23   1 80.234569931 39.822440674 39.093430831
    24   1 77.994277839 40.425789924 78.346052757
    25   1 80.504383997 79.871578762 118.848816903
    26   1 79.814469327 78.511350373 39.877675194
    27   1 78.987043500 79.272599458 78.562389745
    28   1 38.603870424 20.201767317 19.652080260
    29   1 40.445220589 18.256125831 59.398163323
    30   1 38.789729542 18.106460612 99.401440173
    31   1 39.087725450 59.997503388 18.690575162
    32   1 39.800426165 59.296520080 60.202307694
    33   1 40.456363289 57.474620652 98.717137831
    34   1 38.979266603 98.387643094 21.690905859
    35   1 39.188709542 99.788967236 57.400356369
    36   1 40.900493164 99.116187774 100.018814755
    37   1 79.664889422 20.470335863 20.009867060
    38   1 78.309398830 19.903470141 59.814531576
    39   1 78.855990397 19.851720925 98.800738016
    40   1 79.034640512 58.310579850 17.511759855
    41   1 79.916304760 59.252772279 59.006093802
    42   1 78.569601000 60.433358938 98.118698883
    43   1 79.407022602 99.543791760 20.081257141
    44   1 78.769502313 99.489001972 59.625657491
    45   1 80.819090353 99.033197480 98.755566485
    46   1 0.332423390 19.965999167 20.265544012
    47   1 0.377630552 19.451671219 60.861005903
    48   1 0.169061046 19.761309650 98.929458550
    49   1 0.161472875 60.892480337 19.981142534
    50   1 0.918316366 59.611758467 61.197201559
    51   1 1.074570827 59.521502875 98.979379090
    52   1 118.670230054 99.225001916 19.050712007
    53   1 0.303671598 99.996584790 60.626140117
    54   1 118.310122245 99.862071473 98.590258159
    55   1 18.036169112 41.015126968 20.603743426
    56   1 19.926266160 39.530072917 59.777857834
    57   1 21.488412993 38.768878381 97.750477385
    58   1 19.016892084 80.661732429 19.404340421
    59   1 20.103552131 78.717331506 59.715679979
    60   1 21.020834340 80.170259038 97.718229597
    61   1 19.044799570 118.270769362 19.642626850
    62   1 19.701787889 0.298991218 60.098427907
    63   1 21.756293996 117.228396375 98.913206060
    64   1 58.331361244 40.568372276 20.470578113
    65   1 59.616862980 40.570386950 58.646373689
    66   1 59.228498383 38.365332753 98.270996917
    67   1 60.186442174 77.899768385 19.083567169
    68   1 60.030993636 78.231825312 59.488056947
    69   1 59.131433805 79.362586645 98.514169534
    70   1 59.434669095 118.283352513 20.801259725
    71   1 59.110466168 118.048222835 59.713795380
    72   1 60.274903288 118.406964968 98.979033458
    73   1 100.614284832 41.067036766 19.919893212
    74   1 99.647025375 39.888099549 61.105259255
    75   1 97.230559973 39.149666031 99.686274260
    76   1 100.118605975 80.211532053 21.233714556
    77   1 98.165842418 79.288105078 59.642703107
    78   1 99.710380675 79.942294499 98.647116467
    79   1 99.733311251 0.129976287 20.397651082
    80   1 99.157601411 0.838785041 59.647188681
    81   1 99.182350981 0.798143915 99.000909927
    82   1 19.000413437 20.828734922 39.072949072
    83   1 20.407361032 18.178081534 79.944315571
    84   1 18.291409996 19.914496697 0.680467418
    85   1 20.484393795 61.246646779 37.851228495
    86   1 21.404501907 58.486706963 78.539654249
    87   1 19.967940719 60.093893318 0.089653843
    88   1 17.271951369 98.883797514 38.923532264
    89   1 20.204958671 99.469703277 79.393492068
    90   1 21.038837249 99.748058595 0.093482071
    91   1 59.189872311 19.429534224 39.803727278
    92   1 58.594618049 19.832774085 78.883430816
    93   1 59.207664846 18.828085090 0.120436757
    94   1 58.423889701 58.713596159 39.239404356
    95   1 59.710714277 58.412879261 79.254744815
    96   1 60.719557342 58.556600699 116.433991289
    97   1 59.259227954 96.674315004 38.459576015
    98   1 59.555144790 99.330310265 79.416554829
    99   1 60.795767511 98.876268897 0.819053620
   100   1 98.396057106 20.836516456 40.306280285
   101   1 97.908762450 21.826810683 79.799327660
   102   1 99.730270779 19.173352287 1.052625902
   103   1 101.073571274 61.118796780 39.194923803
   104   1 99.524590009 60.886184883 79.609051372
   105   1 100.512766514 59.235820921 118.091253103
   106   1 98.423669344 99.685867453 40.116456697
   107   1 98.592100626 98.746069638 78.643652027
   108   1 99.870105351 99.614018827 1.657166770
