data.48 (written by ASE) 

108 	 atoms 
1  atom types
0.0 10.911092153  xlo xhi
0.0 10.909945606  ylo yhi
0.0 10.911179240  zlo zhi
0.005998722 -0.005015041 -0.005921913  xy xz yz


Atoms 

     1   1 0.205913011 118.737696021 117.483256339
     2   1 1.915513030 0.241279828 40.330011907
     3   1 118.693397325 1.531369587 81.858035398
     4   1 118.696067850 39.936969736 3.080487923
     5   1 1.701756203 37.877703574 38.794254791
     6   1 118.272004216 39.941782536 79.085103839
     7   1 1.940295927 81.685210309 0.387907883
     8   1 0.366829471 79.890271486 41.642223649
     9   1 117.130703758 78.532491312 78.560379246
    10   1 40.798807361 118.942880503 116.419671237
    11   1 38.959788249 116.842057132 41.413832059
    12   1 39.633883954 118.711082152 77.480452874
    13   1 39.312091359 41.306088658 118.743308898
    14   1 41.636007789 39.569395921 40.616744410
    15   1 40.525448695 42.213681677 79.463314010
    16   1 41.399665707 79.823522056 0.147555445
    17   1 39.096767404 76.240621085 42.826702845
    18   1 38.303535354 78.414538540 79.651610118
    19   1 80.709851446 0.164232499 117.813816184
    20   1 79.645463968 0.313425437 39.205260812
    21   1 79.518835351 0.869848976 79.608067914
    22   1 78.406279956 39.716311499 1.512853073
    23   1 77.723775813 40.366263554 36.482011281
    24   1 82.342177722 37.600867209 77.793891675
    25   1 79.904713745 80.175194011 0.025018375
    26   1 78.500743416 79.639367156 39.441096724
    27   1 77.892111143 79.807403591 78.313066080
    28   1 40.640067049 22.080294864 17.814553655
    29   1 38.901234041 19.911433282 58.958785423
    30   1 39.489557722 21.629651208 99.192291509
    31   1 41.155999577 58.880148671 20.974396995
    32   1 39.259562338 58.539786353 61.007175288
    33   1 39.055048768 58.358264165 99.178159765
    34   1 38.243153278 97.059354538 22.692373957
    35   1 38.127082817 97.446589840 61.215408460
    36   1 40.713389235 96.222357114 97.915599567
    37   1 80.044844630 16.673620979 19.342669948
    38   1 75.642690022 19.745390469 59.836558396
    39   1 78.130530774 22.790762419 101.597598406
    40   1 82.207055967 60.316500838 19.119297042
    41   1 79.484938533 61.187685652 61.396080747
    42   1 79.851516175 60.275648387 98.337849510
    43   1 81.028371422 99.888195987 21.726243886
    44   1 80.335095299 99.906402974 56.603840262
    45   1 78.068846697 97.932917103 97.212585388
    46   1 0.888006964 16.833942662 19.575880614
    47   1 118.369158941 21.664368700 60.445435508
    48   1 118.395668242 20.821610200 100.009482985
    49   1 0.706245000 60.650098756 20.717966681
    50   1 117.682181157 59.395654565 57.817406739
    51   1 118.538038899 57.945387412 100.004634107
    52   1 1.047577678 99.142172324 20.561680931
    53   1 118.538609465 98.805676011 59.173321927
    54   1 1.566444611 97.158110915 98.200598783
    55   1 21.413656503 38.748287065 18.579625320
    56   1 16.988960806 39.025964756 61.805539011
    57   1 19.815934352 40.775800905 99.267140802
    58   1 20.985059814 80.425598780 20.910546940
    59   1 18.813501200 77.938409551 58.637472805
    60   1 21.414549343 77.460917837 101.321134207
    61   1 21.155157125 117.326584159 19.102379196
    62   1 17.814790401 0.863465349 61.763361126
    63   1 21.691222762 118.743452864 98.542513816
    64   1 60.586211754 40.863379555 18.827391625
    65   1 62.088631728 41.158745837 56.656124616
    66   1 61.651123726 41.058606534 96.858944220
    67   1 60.952159214 79.264384398 18.256717684
    68   1 60.279920000 79.031597754 57.019047082
    69   1 58.225766250 79.279220687 99.697549613
    70   1 57.836942766 117.532030984 20.406428765
    71   1 59.789124971 118.450788549 59.244312111
    72   1 60.056176810 1.452343156 100.046925204
    73   1 97.906936984 39.097646842 21.401449563
    74   1 96.309466559 40.663914908 54.529602226
    75   1 98.089059593 42.492345013 103.767135315
    76   1 101.438134727 81.873502261 21.676634212
    77   1 98.891420468 79.949092703 60.023697485
    78   1 99.792159420 78.947189823 100.694272686
    79   1 99.589325881 118.261957478 19.211185904
    80   1 99.410502725 1.352539013 60.023360882
    81   1 97.890646622 114.409173668 99.043441156
    82   1 25.426330009 21.155750649 38.105720432
    83   1 20.722099490 20.852886684 80.980511697
    84   1 17.628871523 17.791882216 0.037009109
    85   1 21.354234437 58.048222597 38.386520290
    86   1 16.062747508 60.135971281 76.295621845
    87   1 19.992302832 56.885678408 2.874265881
    88   1 18.164295898 98.891291189 40.906554399
    89   1 20.864063807 97.937055556 79.279967115
    90   1 21.035731514 98.942664072 117.750507358
    91   1 57.790331226 19.434815279 38.187736099
    92   1 56.705157149 21.121895072 79.869960608
    93   1 60.049560394 17.236994776 1.323475496
    94   1 59.358557119 60.184611147 37.336411224
    95   1 60.711790095 58.650068604 77.557877432
    96   1 60.419213035 61.618231847 117.491213722
    97   1 59.077492875 99.308433884 39.457210868
    98   1 57.097434004 99.698368682 78.489103221
    99   1 58.268997866 102.164581667 117.132090936
   100   1 98.919034170 20.237464265 40.726148631
   101   1 99.034094983 18.740286118 78.773050696
   102   1 98.192165292 19.578717871 118.894828486
   103   1 99.846872018 60.751483648 39.845720672
   104   1 101.025738036 55.196252331 76.046382347
   105   1 99.246107328 63.105905114 3.531881064
   106   1 99.837475024 101.451394173 39.018482527
   107   1 96.946877926 99.644780342 77.002287743
   108   1 99.106551148 97.491625341 1.922373390
