data.78 (written by ASE) 

108 	 atoms 
1  atom types
0.0 10.911092153  xlo xhi
0.0 10.909945606  ylo yhi
0.0 10.911179240  zlo zhi
0.005998722 -0.005015041 -0.005921913  xy xz yz


Atoms 

     1   1 10.791716903 42.224715843 100.581999163
     2   1 15.471045338 77.170767291 78.225561860
     3   1 32.566866987 71.589520947 58.187787028
     4   1 24.559106237 26.377281617 15.188762667
     5   1 78.473974338 82.643605732 47.117377853
     6   1 22.345133540 51.026653503 74.670925362
     7   1 59.480655367 6.942738363 49.968038710
     8   1 98.807068219 66.583543648 74.313634246
     9   1 84.995535187 58.514636056 94.846259340
    10   1 21.509955622 65.750328184 96.513860561
    11   1 82.330896826 40.990452855 77.031423108
    12   1 90.057783208 7.034003512 32.914478702
    13   1 78.590435461 111.310050439 98.860888215
    14   1 7.543304812 110.507296796 107.919328661
    15   1 116.172881326 16.209223975 96.673786026
    16   1 60.946858393 96.523035138 110.825140881
    17   1 17.798739451 4.433398977 14.247297250
    18   1 58.364532680 91.429706594 87.668126346
    19   1 98.967393776 57.694566481 33.392567209
    20   1 52.169726266 114.447290655 88.464360724
    21   1 39.754584838 115.806732378 59.669500400
    22   1 11.366417560 114.700691358 56.239993445
    23   1 106.704099707 67.205967656 14.163566874
    24   1 21.095440953 8.632979378 38.235821040
    25   1 70.547121317 17.095684868 16.721074763
    26   1 58.368110169 71.791889676 104.419410493
    27   1 116.785135544 100.144959092 13.790448965
    28   1 111.544382398 116.114634812 77.909190579
    29   1 88.181333514 102.984932373 27.403118780
    30   1 19.682085127 24.708605383 56.708351560
    31   1 77.135285112 33.819745798 115.503866073
    32   1 108.203332071 51.534880353 111.986460282
    33   1 25.243901943 25.903301527 82.763286108
    34   1 7.228456843 84.349506447 107.413757241
    35   1 60.945983336 54.455908346 0.817607181
    36   1 40.280051006 74.510318487 26.175161468
    37   1 43.446030038 33.349493319 43.967437144
    38   1 117.320198853 60.462901260 89.302796023
    39   1 114.728603928 83.129091570 63.611308351
    40   1 48.929402969 1.550828338 3.678647287
    41   1 82.777356241 48.608196947 15.363882333
    42   1 65.401125688 12.120857610 103.309326409
    43   1 70.482864984 27.127058061 41.457780169
    44   1 31.824861875 108.958392820 103.765340953
    45   1 86.137869570 21.714169040 60.577967086
    46   1 16.108542888 23.542762800 111.926351453
    47   1 84.904478567 75.351627186 115.165245924
    48   1 113.855457818 4.559297436 31.850899968
    49   1 34.949915234 40.838529569 109.571876809
    50   1 27.104960617 1.645043945 81.631961125
    51   1 103.998704679 39.448675848 54.921152611
    52   1 17.961920104 92.442381997 57.852216643
    53   1 73.357512060 70.899367282 79.087880357
    54   1 87.637627403 8.885407150 115.045756990
    55   1 32.073317114 105.803712795 22.824401088
    56   1 102.740575194 29.755181133 110.522853716
    57   1 56.952009420 116.996428959 29.801661634
    58   1 19.153703660 86.477963758 8.910577116
    59   1 107.918519703 92.169707634 89.841253031
    60   1 45.686143007 55.978244677 44.931085876
    61   1 104.364294336 38.768852511 89.903051201
    62   1 0.033249808 31.023155368 14.062813033
    63   1 92.554822921 98.477836718 118.020165011
    64   1 14.957750090 98.236414319 89.137555052
    65   1 111.101289578 83.309686431 34.824715752
    66   1 42.136002819 25.008216431 68.294185130
    67   1 12.734276957 98.662867553 34.786237062
    68   1 86.085246374 75.981848801 23.541983667
    69   1 56.293200646 41.945307288 98.704831082
    70   1 115.589172646 6.932541103 2.086912629
    71   1 0.774599198 28.292886475 73.111901299
    72   1 62.680381140 46.577100186 58.607776356
    73   1 20.421511072 54.096674020 49.305255083
    74   1 8.342943029 50.387547592 28.051357704
    75   1 100.454696433 114.807225217 98.119022557
    76   1 83.379473846 108.177379098 52.591435982
    77   1 62.329397560 76.781377726 14.284487377
    78   1 108.638425634 102.252300107 49.154648559
    79   1 0.719190455 59.468033278 61.526554824
    80   1 62.687564925 100.163631922 66.012300224
    81   1 85.837686486 62.257054326 54.321022917
    82   1 60.224655933 93.815056468 29.457715973
    83   1 94.105046681 33.286005322 35.939009644
    84   1 28.821306846 54.014269785 17.794207392
    85   1 37.804240647 96.590021923 43.544270427
    86   1 38.357802006 84.496853777 99.971959830
    87   1 88.449578555 18.572689716 87.118796896
    88   1 37.245889430 69.177552434 0.962187242
    89   1 42.835597139 92.198630968 4.530766553
    90   1 106.212459699 74.388239446 105.705603099
    91   1 38.322293658 17.306122486 100.938954775
    92   1 48.989468091 43.344812813 20.654565443
    93   1 49.618884620 27.491984720 3.974153143
    94   1 45.656359968 60.976080167 85.475136731
    95   1 71.840457372 107.407532574 9.571232204
    96   1 64.223557174 15.161140659 76.153712601
    97   1 80.832283415 89.525429526 94.184290668
    98   1 55.765819731 76.406946758 61.384796253
    99   1 93.923771866 23.930809490 14.737829109
   100   1 65.125825965 62.716962468 36.578775941
   101   1 38.120026850 90.206079942 73.249369580
   102   1 91.453968176 94.761111488 71.730283212
   103   1 108.103114214 11.664207571 54.300140877
   104   1 41.540127304 16.702491270 25.362092394
   105   1 4.361658340 30.553459886 42.162537908
   106   1 15.256571710 72.617246994 35.291615236
   107   1 82.415208256 117.514467990 75.355138749
   108   1 10.867587608 61.580558771 1.369524899
