data.32 (written by ASE) 

108 	 atoms 
1  atom types
0.0 10.911092153  xlo xhi
0.0 10.909945606  ylo yhi
0.0 10.911179240  zlo zhi
0.005998722 -0.005015041 -0.005921913  xy xz yz


Atoms 

     1   1 0.443878722 1.526643361 3.281519143
     2   1 118.224515735 116.507763044 37.588932029
     3   1 118.607342766 116.555115284 79.295182194
     4   1 0.555707417 34.930567210 116.924009632
     5   1 3.232898231 38.650845767 40.872168120
     6   1 118.071306967 38.238594557 82.214615961
     7   1 0.645556778 80.551389613 0.114222902
     8   1 118.200296941 79.848071612 37.813248132
     9   1 0.933738825 77.203849899 82.185764325
    10   1 40.449306100 0.571675642 118.884416539
    11   1 37.496712976 117.844583410 42.359724017
    12   1 39.083785652 117.306534285 74.027716942
    13   1 41.115371983 39.053359572 118.791323792
    14   1 38.229237739 40.340329170 39.308181109
    15   1 40.725865487 40.808141968 78.057363789
    16   1 39.956599040 80.953219030 0.343449310
    17   1 40.452665173 78.762163004 40.273983868
    18   1 37.638071354 78.603523253 80.803420880
    19   1 79.689213017 1.141248349 118.611653804
    20   1 81.295472112 0.309798503 39.308676468
    21   1 80.359610372 117.529021894 77.049496947
    22   1 78.700098019 37.355060193 116.203169988
    23   1 79.632570162 40.334154468 38.403870275
    24   1 78.516663236 37.945973425 80.996462333
    25   1 80.054985130 78.711193562 118.614759870
    26   1 79.793416080 80.631928553 37.913099050
    27   1 78.589121965 79.496949704 79.468093195
    28   1 40.169471490 20.815607711 20.714178084
    29   1 36.408988339 20.633696947 62.013507203
    30   1 38.675846864 20.060038100 97.228534094
    31   1 42.426828168 60.546443714 19.370087504
    32   1 38.317909959 61.243198352 59.337245170
    33   1 36.566889109 62.277507746 101.507655199
    34   1 40.456923959 100.570675935 18.912588566
    35   1 39.458395803 97.520465417 60.192798632
    36   1 39.685285179 101.197451144 99.655606234
    37   1 79.678978458 22.088790043 18.610219374
    38   1 80.472072687 21.662680198 57.854505212
    39   1 77.525280191 18.793839151 98.746801687
    40   1 80.152090736 59.959136942 18.544572205
    41   1 80.206317156 56.137449312 64.767116507
    42   1 79.007248517 61.108451073 96.855208725
    43   1 79.487472404 99.980246148 19.893711736
    44   1 81.356984937 99.643027871 57.642495999
    45   1 78.517311834 98.724462388 99.375395506
    46   1 0.870354059 19.498310636 20.324244031
    47   1 0.567647623 22.047879447 61.092141131
    48   1 117.594556305 17.588957737 98.256871070
    49   1 117.288371189 58.457435150 19.748857674
    50   1 118.038943367 59.016040765 58.543557860
    51   1 118.756813545 59.359875627 101.151682888
    52   1 119.082797580 97.687340476 19.402684403
    53   1 1.064318847 95.441746307 57.184035214
    54   1 116.644528675 99.890229367 102.413349811
    55   1 21.061639420 39.203127055 18.070585340
    56   1 19.873313341 39.599837436 60.408591367
    57   1 21.233124911 37.184411530 97.934440064
    58   1 20.635960339 81.730794759 18.157118195
    59   1 22.078305400 80.689547678 59.167364410
    60   1 19.473695429 82.357344446 99.973585556
    61   1 21.263497579 0.982312773 18.451724048
    62   1 14.791443224 0.536442263 57.919371296
    63   1 20.812375847 117.881491327 98.046335788
    64   1 60.609079223 38.862746173 17.126949609
    65   1 59.098477221 39.948201252 58.266929781
    66   1 60.026782547 42.978658420 101.191612229
    67   1 60.461173794 80.191517001 19.732707491
    68   1 61.670014389 80.255656924 60.114095338
    69   1 59.276376597 81.728582522 99.648949687
    70   1 63.874015027 117.756337165 21.831939784
    71   1 58.929531540 3.423628388 59.764638566
    72   1 56.215684366 118.641785239 97.261039611
    73   1 99.223864217 38.583527321 18.409182095
    74   1 100.965142851 40.277992641 61.835075062
    75   1 96.095344175 41.385742328 100.495267770
    76   1 99.100478141 79.399919918 18.761875379
    77   1 98.216032229 75.874989874 61.432124655
    78   1 99.663538662 78.200521460 98.743802247
    79   1 97.540497182 2.206508688 21.733435060
    80   1 100.094722789 117.783863666 57.960130254
    81   1 99.596359880 118.970442092 97.656182010
    82   1 20.595453761 17.080535562 40.247643796
    83   1 18.474921271 18.882305764 80.051017690
    84   1 21.239787831 18.881282820 115.051327211
    85   1 20.385884696 62.090751436 37.914033375
    86   1 20.303942207 57.470230434 79.831254800
    87   1 17.318321822 58.480912891 1.930651829
    88   1 19.563529685 97.594164178 39.319627840
    89   1 19.517396705 97.888667350 76.984183540
    90   1 21.029725726 101.765357083 0.914220177
    91   1 60.360441734 22.697495906 39.220909891
    92   1 60.832297597 17.967489727 79.128307992
    93   1 60.988468082 18.828621699 1.105502496
    94   1 60.312791097 59.605598864 41.843187514
    95   1 58.525931589 60.713757359 79.530841131
    96   1 61.751159874 58.508584992 1.385425100
    97   1 58.102145857 98.784226205 42.771210890
    98   1 60.170150671 98.613026519 76.177921677
    99   1 57.460708657 100.768121619 118.295899526
   100   1 100.600736327 19.721430186 42.138705226
   101   1 97.798915270 19.703533331 80.596523848
   102   1 98.460533139 18.186632950 115.506355817
   103   1 99.755717826 59.346533480 39.765925396
   104   1 99.953462682 59.971549337 81.204790488
   105   1 100.823169371 56.668031827 1.898254536
   106   1 100.018246063 99.611750686 39.171072076
   107   1 99.219861318 98.758280315 80.488571748
   108   1 97.484313451 104.106479114 0.728039695
