data.98 (written by ASE) 

108 	 atoms 
1  atom types
0.0 10.911092153  xlo xhi
0.0 10.909945606  ylo yhi
0.0 10.911179240  zlo zhi
0.005998722 -0.005015041 -0.005921913  xy xz yz


Atoms 

     1   1 1.757942562 117.896538141 117.912307362
     2   1 118.826823249 0.278951436 38.466638020
     3   1 118.551325568 117.409853327 78.626376159
     4   1 0.944707911 40.491468136 116.112438471
     5   1 118.224559799 38.066435140 39.973873648
     6   1 118.421667384 37.949236776 83.098110183
     7   1 118.810942561 78.207689287 0.884082289
     8   1 118.492988205 81.532988555 38.083761180
     9   1 119.045446974 78.296944836 77.668866423
    10   1 40.029034540 1.527854038 117.064829783
    11   1 39.568741720 2.268347884 39.817651443
    12   1 39.212662783 0.400474422 81.238122557
    13   1 40.793309215 37.546326842 0.864736107
    14   1 39.382988822 37.588130730 36.565072920
    15   1 36.962527437 36.819001417 78.850108312
    16   1 39.005168844 77.169038720 1.582313444
    17   1 39.503265689 79.862883054 38.155855903
    18   1 36.701892307 79.634980500 76.691530389
    19   1 78.118219930 117.873217577 1.882269754
    20   1 79.015259537 0.833256828 38.252599912
    21   1 80.092616076 116.820068910 78.637705813
    22   1 79.223846156 40.044886707 117.633806198
    23   1 82.803915880 39.191004929 41.282944327
    24   1 78.274483575 43.802495278 80.042751598
    25   1 81.183349166 79.664754367 1.875875189
    26   1 78.983062578 80.997165023 38.456873014
    27   1 79.295919689 80.615350042 81.398333274
    28   1 41.217756379 18.196323834 21.112280832
    29   1 41.351845327 19.080050526 60.237581332
    30   1 42.271608459 19.569602430 97.530496556
    31   1 40.187257602 57.760880768 19.107495352
    32   1 38.379962002 60.284620611 57.243937501
    33   1 38.549483714 60.655942216 99.648360488
    34   1 42.374677471 99.006368847 20.988854136
    35   1 41.531517829 100.303158947 60.478922443
    36   1 38.545477053 100.870470729 98.364692822
    37   1 82.664128786 23.122674203 18.141119266
    38   1 84.980728672 19.771326372 59.200671884
    39   1 78.371479898 18.951374626 97.095765364
    40   1 76.823252381 59.491092445 19.039834178
    41   1 79.230917752 60.044057186 58.578338258
    42   1 78.478930286 61.423221001 100.906324508
    43   1 76.191833069 99.685703813 19.803000555
    44   1 79.759891258 97.353074893 60.483429444
    45   1 79.141561311 99.340767873 100.720320283
    46   1 117.751145723 21.034461262 19.027719706
    47   1 117.185435015 18.202791681 60.951931446
    48   1 118.835523716 18.513987273 100.537464937
    49   1 116.704317648 62.449525015 20.978452758
    50   1 2.425947035 57.825369483 57.530382591
    51   1 118.105994358 60.199420502 97.115364524
    52   1 4.215165246 100.256862586 18.362363273
    53   1 117.937486162 102.145351151 60.235770122
    54   1 0.880114350 97.668898867 100.971376254
    55   1 19.215133793 35.649637438 21.252693770
    56   1 22.730264851 37.779218845 56.430083199
    57   1 20.210422511 40.446983402 100.922461951
    58   1 20.171085379 79.422133277 21.914493776
    59   1 18.331584095 79.633946820 60.612829411
    60   1 18.087539130 78.883147954 98.730447651
    61   1 20.214720030 1.899063466 19.976668869
    62   1 19.673327221 118.519995043 59.806669710
    63   1 18.311684528 118.810515458 99.765403718
    64   1 58.502229335 37.780997976 20.475107257
    65   1 57.740227353 40.857871900 59.897740462
    66   1 56.903992002 41.529988797 98.108911395
    67   1 59.904466992 78.534681371 19.698146138
    68   1 58.995784160 80.541885792 62.802570675
    69   1 58.059105741 79.337904265 99.033512267
    70   1 58.704832408 118.345974153 19.241242070
    71   1 60.543566887 1.444048356 59.845212988
    72   1 60.159835597 0.569653360 95.416282603
    73   1 103.237191680 41.621210989 17.973762179
    74   1 100.681068426 40.191196279 61.663219977
    75   1 96.705467825 40.520990429 97.683881913
    76   1 98.045019272 80.442399883 18.025804297
    77   1 98.283571879 79.187761587 59.430430507
    78   1 99.739213330 80.964148447 98.193668147
    79   1 101.042268487 118.572707069 20.143016983
    80   1 97.503169005 117.545454181 59.273423653
    81   1 99.493639792 -0.013133610 99.202169825
    82   1 16.245327276 17.122316620 42.874518800
    83   1 18.103044519 18.091885536 79.104901619
    84   1 21.608000159 21.379768562 117.697439935
    85   1 20.003806139 57.035673436 37.047382632
    86   1 19.780019200 59.075933470 82.845900092
    87   1 19.746460859 58.534634762 1.636277127
    88   1 20.820568410 99.014481317 39.157080633
    89   1 18.799173666 98.069275435 79.972904213
    90   1 22.796642028 99.904303019 2.794991624
    91   1 60.510270532 21.596236741 39.042738753
    92   1 62.854590551 21.155805705 77.260432760
    93   1 62.053740258 19.641034383 118.993552014
    94   1 61.345832432 60.297772784 39.809493488
    95   1 58.602908894 59.866419338 79.942834465
    96   1 58.929232703 56.448835562 118.695003632
    97   1 59.552139542 98.449812360 41.579354468
    98   1 59.614160549 100.318478819 78.745242454
    99   1 57.828395918 96.898768370 1.015667144
   100   1 100.944428032 17.666912864 39.057478039
   101   1 98.089084057 20.601076356 83.957625736
   102   1 98.662439038 20.142855432 116.574423872
   103   1 97.621760571 58.835882925 37.399917468
   104   1 97.653680226 62.817106057 80.363069517
   105   1 100.919876884 58.337694832 117.339609443
   106   1 99.235375534 101.417678235 40.611360274
   107   1 98.681170675 98.452747377 78.936642582
   108   1 101.559044558 97.711298352 117.810360174
