data.46 (written by ASE) 

108 	 atoms 
1  atom types
0.0 10.911092153  xlo xhi
0.0 10.909945606  ylo yhi
0.0 10.911179240  zlo zhi
0.005998722 -0.005015041 -0.005921913  xy xz yz


Atoms 

     1   1 12.696519138 33.132142464 88.720559600
     2   1 11.373798145 81.126545814 86.049395708
     3   1 22.232609270 74.820212754 59.605381415
     4   1 27.109077064 32.305210088 17.980829216
     5   1 76.189072246 55.171870000 55.617225762
     6   1 24.207061702 60.023762419 86.979994476
     7   1 59.719927966 2.960629124 40.217916050
     8   1 94.612208121 74.597984466 55.009259249
     9   1 80.937664861 73.584857037 76.447088123
    10   1 8.355180121 55.409841830 101.603637938
    11   1 55.800706773 19.738142452 71.655938494
    12   1 84.135313887 118.785837634 48.738942748
    13   1 80.159645961 116.090392218 104.373812281
    14   1 3.545171193 107.169480961 84.131979702
    15   1 0.484574697 9.974373090 106.293934191
    16   1 66.496620052 98.322958797 113.239477186
    17   1 25.520640824 1.063714288 8.606592916
    18   1 59.100169726 89.729556234 88.490419982
    19   1 103.896442546 55.586593455 44.808943107
    20   1 56.563479614 116.142375944 84.693249675
    21   1 36.360190229 91.625142361 49.958913194
    22   1 7.809908424 3.522698683 66.051025125
    23   1 104.072435817 80.277853625 5.838680860
    24   1 33.834041285 3.239795411 49.340016570
    25   1 73.635128465 116.854573707 15.939541494
    26   1 66.718935122 66.205320548 96.381995326
    27   1 12.934827695 104.412684155 108.063974174
    28   1 114.412552370 17.554229494 78.687574100
    29   1 98.485497350 107.813155176 24.742292021
    30   1 16.192656653 19.757758513 40.995872803
    31   1 82.500849128 41.700160615 91.816489762
    32   1 108.609638269 57.393454534 116.462256188
    33   1 39.579464787 41.142674777 83.635498900
    34   1 29.911970469 88.166571346 99.534542243
    35   1 83.293910908 50.243993836 115.788092231
    36   1 32.340098100 56.109389948 11.198849054
    37   1 36.939784289 30.075003500 52.850165250
    38   1 97.582689072 61.492732111 95.424721944
    39   1 105.296451728 102.866780205 49.476701235
    40   1 60.753534741 8.519789796 113.449299885
    41   1 95.278770114 44.573989737 17.609727626
    42   1 80.935360657 26.736396490 118.901734105
    43   1 62.668869801 22.118692941 22.507747293
    44   1 37.650734983 111.711126357 103.987371960
    45   1 83.055315606 24.984718346 67.508683751
    46   1 23.352532003 27.022959228 113.957191874
    47   1 78.317482557 75.500541767 116.239795970
    48   1 106.389987295 11.429787684 42.779861849
    49   1 32.279543071 49.321863009 106.631444278
    50   1 18.332303754 10.024343119 93.832556996
    51   1 101.062534256 48.099654454 70.958641706
    52   1 14.802759996 96.966799380 58.570894208
    53   1 64.284468252 43.813763147 74.852477209
    54   1 100.575794383 5.348060579 3.173300294
    55   1 28.588297732 99.814037993 24.585058054
    56   1 108.077602105 30.244298088 0.584187488
    57   1 59.816627832 95.360201324 35.055213094
    58   1 4.413854570 100.845185151 17.974194524
    59   1 102.726868474 86.110536162 76.441944714
    60   1 47.099886144 53.335774913 49.231854976
    61   1 107.641835473 37.015077622 93.910680621
    62   1 10.486326201 45.042239433 4.674439356
    63   1 99.273098968 100.139946607 117.986411884
    64   1 26.236601428 111.035169417 77.018369687
    65   1 108.211911325 85.580047806 28.825333752
    66   1 28.563293186 17.887123704 72.152582152
    67   1 12.724611829 114.207025945 37.053045290
    68   1 90.982187634 68.724290629 27.731387958
    69   1 58.992933080 39.736398224 100.693225254
    70   1 118.466342614 4.409148772 20.330287713
    71   1 0.701763586 61.898756272 70.819060078
    72   1 21.532051521 47.988142229 68.078200339
    73   1 9.104702097 53.204991152 49.182481326
    74   1 1.005052922 60.691224289 22.140261858
    75   1 101.774623578 111.867120253 92.895453965
    76   1 82.547679196 91.703370174 41.355886479
    77   1 60.390349081 58.107019570 5.713874149
    78   1 101.393609459 118.117830412 66.993630793
    79   1 0.192626206 75.726183322 52.482744877
    80   1 53.387510237 109.275593695 62.326796886
    81   1 63.963948066 31.661132478 47.629946554
    82   1 66.214759750 72.154856469 34.361016239
    83   1 88.370452724 32.740334128 43.929737286
    84   1 28.670767222 46.422804405 36.306380363
    85   1 41.975802663 72.590950218 36.153798788
    86   1 39.753639200 97.580196202 5.623248745
    87   1 96.135862648 18.731260011 99.570586835
    88   1 41.151955220 75.108792434 115.859808273
    89   1 53.209878238 82.344937596 16.249571991
    90   1 111.716746675 83.600926437 101.748345919
    91   1 43.450406593 16.841892440 93.967440032
    92   1 50.087494229 41.739990160 27.421830521
    93   1 43.022128205 20.279118495 6.085017304
    94   1 51.745673080 65.070655278 78.584639760
    95   1 78.454696558 86.762590919 15.208137682
    96   1 70.661842434 20.322482884 94.833685500
    97   1 85.431714143 89.821071144 98.828805202
    98   1 60.259903269 79.898559442 55.758877633
    99   1 92.126442008 18.169022160 22.729458008
   100   1 72.988216572 49.358272001 30.336609306
   101   1 36.252181519 88.162387589 75.443474554
   102   1 76.637690862 98.278072516 69.840681909
   103   1 118.223483820 33.223471507 60.803178585
   104   1 44.764742762 4.094664838 24.524549685
   105   1 118.320600829 32.486224650 24.606773043
   106   1 13.417434504 81.292318997 27.332459799
   107   1 77.951077157 3.589857167 76.966104163
   108   1 11.133276024 81.145010985 4.217984270
