data.69 (written by ASE) 

108 	 atoms 
1  atom types
0.0 10.911092153  xlo xhi
0.0 10.909945606  ylo yhi
0.0 10.911179240  zlo zhi
0.005998722 -0.005015041 -0.005921913  xy xz yz


Atoms 

     1   1 25.575044838 42.823445750 98.782167345
     2   1 25.340472092 63.973559494 85.209738777
     3   1 19.322093222 50.619762248 47.143724882
     4   1 10.911708180 25.959472528 116.115979756
     5   1 74.973902343 43.690056762 55.622346954
     6   1 48.908485604 61.898645631 74.751155993
     7   1 73.490553522 111.731458649 25.295016076
     8   1 119.085501154 65.874340877 38.202466320
     9   1 95.694946326 79.191931378 72.581824837
    10   1 33.332914818 68.183648214 109.793629607
    11   1 75.310868792 7.428405874 81.478802837
    12   1 83.159412240 98.727014553 66.382261324
    13   1 77.241826702 105.530198075 114.039836825
    14   1 107.131199813 105.976932356 71.884143958
    15   1 104.680695535 15.700391752 8.278324379
    16   1 49.821646937 94.689531803 114.577396039
    17   1 117.894122366 111.251025893 24.272553670
    18   1 63.163620020 86.943771010 75.917505986
    19   1 97.035185018 55.368399161 32.999458736
    20   1 64.504139355 112.517568932 96.465749498
    21   1 49.392765269 82.324953204 33.991187206
    22   1 117.197519416 7.169829786 71.482148859
    23   1 102.544931058 87.342338240 104.088153056
    24   1 43.759125799 104.822674247 44.789989016
    25   1 58.161729507 5.399092487 6.738665726
    26   1 72.937573291 55.797691250 116.406418791
    27   1 9.380310775 0.090882518 0.538167420
    28   1 109.284926603 27.126192735 105.116348530
    29   1 65.898224207 93.503218324 46.541045764
    30   1 15.227130419 27.270831536 56.171719243
    31   1 85.159265533 29.215998137 117.963041658
    32   1 100.384958111 63.204595931 108.548186883
    33   1 56.685567281 36.542066924 67.151062353
    34   1 39.901183892 87.161799339 82.769387448
    35   1 76.868712466 46.893928432 21.584041521
    36   1 22.214031449 69.481563548 12.335950295
    37   1 43.207668647 32.085237954 49.799725964
    38   1 81.930459907 71.856805422 92.491855026
    39   1 116.988897478 90.664853149 57.598249875
    40   1 33.959711515 17.007832874 6.432284716
    41   1 93.974968920 30.184236254 29.446724531
    42   1 58.955431311 33.473410119 4.254607755
    43   1 49.601344438 15.258525730 28.963643574
    44   1 44.267469092 116.078736821 86.812140777
    45   1 93.801140334 43.506774884 94.842496956
    46   1 27.239226432 11.864926497 103.571542032
    47   1 89.600985267 67.320175911 13.392396944
    48   1 103.914588191 9.470360999 42.132862307
    49   1 52.062314404 49.753109875 96.958996682
    50   1 13.880067577 23.442036384 85.883339628
    51   1 99.113529744 56.754960698 62.135693100
    52   1 20.588131240 97.549525565 43.273672221
    53   1 84.497361645 27.294957107 71.810562488
    54   1 79.294590495 15.261969952 18.012163893
    55   1 4.159372285 114.409197608 50.093620937
    56   1 3.915135248 44.447131734 88.839415520
    57   1 44.766167346 107.726824028 19.107807248
    58   1 4.082793537 96.723120151 1.827530085
    59   1 111.249706162 66.780857417 84.023669969
    60   1 44.699891190 55.968174241 47.037844518
    61   1 11.581223395 79.473035395 100.941685178
    62   1 9.310445219 57.523867306 113.686250958
    63   1 106.161507833 108.902771705 118.085878070
    64   1 25.154994164 106.634458239 65.484940970
    65   1 108.839232724 90.337948296 35.991764957
    66   1 28.684847683 11.931335986 69.811945369
    67   1 93.844840809 104.698727610 46.617488741
    68   1 88.470657429 77.085222190 40.001024505
    69   1 72.919714349 30.617050384 97.591967942
    70   1 3.774950573 23.211403815 24.619808221
    71   1 1.077677921 50.807366377 66.410151796
    72   1 32.746089134 45.178619587 70.293018908
    73   1 8.113610196 50.014342804 18.942621070
    74   1 113.679192909 72.073316084 13.978187032
    75   1 10.145135357 117.937250396 88.735010354
    76   1 63.965485353 92.143226462 15.381886906
    77   1 51.311108352 69.169708587 8.835302643
    78   1 90.995335607 6.133912424 62.100337650
    79   1 18.132523648 74.386682532 60.765061258
    80   1 59.387270569 107.553433551 69.051632468
    81   1 50.546108786 11.146526791 60.939839029
    82   1 68.700691877 63.967190970 34.440986475
    83   1 108.544820516 33.938495450 48.467788836
    84   1 30.226717739 31.816986855 28.680693114
    85   1 27.125890177 74.328521771 34.806754093
    86   1 35.723444164 114.693237493 114.931970231
    87   1 89.860539171 6.078994701 108.898319537
    88   1 56.535112092 72.778920652 98.387618477
    89   1 28.725411088 93.647754025 6.778010756
    90   1 7.824510327 93.794827328 80.327190337
    91   1 41.672788950 24.307899603 82.918870852
    92   1 48.471815718 49.739657287 24.592014725
    93   1 30.988737894 40.304053298 3.949215928
    94   1 74.050994860 53.865781693 78.217352690
    95   1 93.606386022 92.408209278 13.793394724
    96   1 51.858983618 17.413972804 103.767940728
    97   1 77.131478191 81.612596407 116.635021877
    98   1 72.683219701 70.948986966 58.938307317
    99   1 67.174286776 1.729071012 46.772879539
   100   1 65.596235074 21.672025641 40.635442828
   101   1 45.412278253 82.715802253 59.276617854
   102   1 91.930594916 107.789825992 92.946954903
   103   1 109.967709917 30.253763422 72.621936014
   104   1 26.950704180 5.973539065 38.496371981
   105   1 101.768433606 45.658085845 5.110745749
   106   1 12.091656955 86.203301643 24.605025082
   107   1 101.487959699 12.911871601 89.783632958
   108   1 26.583790480 100.077612596 99.717357516
