data.109 (written by ASE) 

108 	 atoms 
1  atom types
0.0 10.911092153  xlo xhi
0.0 10.909945606  ylo yhi
0.0 10.911179240  zlo zhi
0.005998722 -0.005015041 -0.005921913  xy xz yz


Atoms 

     1   1 1.785323122 2.223533565 118.879504514
     2   1 118.084484277 116.825379488 41.000786990
     3   1 118.369524372 1.472780923 79.496188608
     4   1 118.196191416 38.549528519 1.004814957
     5   1 1.876706384 39.076100183 34.784387400
     6   1 0.672881419 40.374818905 83.221513677
     7   1 117.897140527 79.492813507 0.243057494
     8   1 1.786620869 79.985117271 40.360738810
     9   1 119.059750472 77.154860240 77.489232027
    10   1 37.857287829 118.961160748 0.497611681
    11   1 37.672069403 114.206981564 39.108590892
    12   1 40.745356895 116.446296774 76.714940491
    13   1 43.161481362 39.251239893 0.039465592
    14   1 39.005748808 39.182165255 38.490314832
    15   1 41.919412193 42.336912393 80.051446554
    16   1 37.311484933 79.985975817 116.852550393
    17   1 39.101485206 77.693580847 38.882017068
    18   1 41.965934390 82.010523158 78.658162477
    19   1 80.463216434 1.775001945 118.730722335
    20   1 77.922381284 117.471967449 41.377009631
    21   1 80.425147391 118.601470546 80.528351397
    22   1 77.291608822 39.131009218 117.832819440
    23   1 80.456560251 38.850294815 42.042461754
    24   1 78.631434967 38.694088363 79.404373410
    25   1 76.958633111 80.641245790 117.899503490
    26   1 78.264604665 82.288770430 39.690614196
    27   1 79.281743454 78.232908762 79.861219142
    28   1 40.237123593 21.435661432 19.539106714
    29   1 40.826835701 19.757170942 57.430047559
    30   1 39.068741419 21.528927881 101.215025569
    31   1 38.452946939 61.835981511 18.930715306
    32   1 43.435246630 61.275045028 59.653344744
    33   1 40.023613208 59.440979528 102.381698359
    34   1 39.669598914 95.153433266 18.202281058
    35   1 38.790283557 97.850669212 59.930770091
    36   1 38.465920804 98.493428903 100.256831533
    37   1 77.350234910 20.521254787 20.493785535
    38   1 77.676715915 19.174830254 61.270888537
    39   1 75.281971110 19.516924516 97.655836152
    40   1 77.561567960 55.740353351 21.823698085
    41   1 79.622980091 60.953093620 56.552916845
    42   1 80.941269935 59.625241594 96.883459310
    43   1 76.690225184 102.407165196 16.895905969
    44   1 84.151211833 100.490972862 57.428002501
    45   1 78.265451771 99.195887913 98.571880440
    46   1 3.934531319 18.422850309 21.078577407
    47   1 2.386346288 22.544483016 59.294632954
    48   1 1.677320180 20.659617756 98.249195050
    49   1 116.875807495 60.506046567 21.649820325
    50   1 2.160775386 54.846795907 58.270373115
    51   1 0.366812520 58.874896256 101.049924616
    52   1 118.445988112 100.111095381 18.725912716
    53   1 118.085542408 97.260320704 61.858674677
    54   1 117.056012450 100.713037076 100.924660795
    55   1 19.402573480 43.880062518 16.733264882
    56   1 22.761279468 39.111622781 60.785167518
    57   1 20.700001387 38.693594043 100.272202031
    58   1 16.082218004 78.957870178 19.828659432
    59   1 20.686901284 80.594148319 60.591582011
    60   1 18.966881151 79.185232649 96.547623390
    61   1 19.962997164 0.459321914 19.743029704
    62   1 22.664525799 117.965207207 60.251690469
    63   1 21.621213369 1.199410463 100.486535819
    64   1 57.100862936 38.569341760 21.080236020
    65   1 60.635249140 39.778023394 59.307084108
    66   1 60.689629939 41.127158847 99.942485275
    67   1 60.671778504 78.821038700 19.298926915
    68   1 62.211208670 82.137475694 60.765478560
    69   1 59.455618772 77.257158154 97.347125968
    70   1 57.914253991 119.008103379 21.247064667
    71   1 59.566759880 118.628844147 60.137459338
    72   1 56.472192656 0.582640282 100.655742532
    73   1 98.023277220 38.582809906 19.073102093
    74   1 102.633707024 40.112746481 57.955386811
    75   1 97.604422602 35.917786189 100.676954857
    76   1 95.764919439 81.633849350 16.508627059
    77   1 100.108850355 77.384619598 60.094890065
    78   1 101.887253487 78.847640955 97.044126584
    79   1 100.096427341 0.265835864 18.112648953
    80   1 98.322949652 0.841468739 59.088613252
    81   1 96.267625111 1.708993001 98.021823590
    82   1 21.825877708 18.583779480 41.465373616
    83   1 22.457686763 19.439421197 79.045618449
    84   1 19.335710264 20.816635850 118.824324515
    85   1 19.617629022 56.923586298 39.831694110
    86   1 20.604422383 57.255300052 82.184331704
    87   1 19.819416510 59.652161335 116.146346508
    88   1 18.086632480 97.178496033 38.710024283
    89   1 20.080709465 99.749901804 78.937897308
    90   1 21.028795802 98.627831357 0.871396737
    91   1 60.152921765 21.187302901 41.595995549
    92   1 56.076252805 21.212584995 80.762984930
    93   1 58.759043511 18.937386158 0.715019289
    94   1 59.140162567 60.603767575 38.975297889
    95   1 62.200243265 56.502606786 79.272852203
    96   1 60.631543810 60.404551137 118.081805252
    97   1 58.404685440 99.304976819 39.028333027
    98   1 61.658634914 97.729927835 80.853673791
    99   1 55.595945474 102.128251726 0.290127936
   100   1 102.392460900 20.919354763 40.095101899
   101   1 99.286323016 21.225133922 80.668828013
   102   1 99.746548323 18.495892279 0.538316386
   103   1 101.921567417 61.576237059 41.351302648
   104   1 99.330528863 57.581641275 80.266800834
   105   1 97.884437735 61.661249877 118.496880605
   106   1 100.797209390 98.703302829 38.796187441
   107   1 96.973168084 96.853792459 78.401481540
   108   1 97.114607296 100.142381101 116.351841529
