data.lammps (written by ASE) 

8 	 atoms 
2  atom types
0.0 5.6916940000  xlo xhi
0.0 5.6916940000  ylo yhi
0.0 5.6916940000  zlo zhi


Atoms 

     1   2 0E-10 0E-10 0E-10
     2   2 0E-10 2.8458470000 2.8458470000
     3   2 2.8458470000 0E-10 2.8458470000
     4   2 2.8458470000 2.8458470000 0E-10
     5   1 0E-10 2.8458470000 0E-10
     6   1 0E-10 0E-10 2.8458470000
     7   1 2.8458470000 2.8458470000 2.8458470000
     8   1 2.8458470000 0E-10 0E-10
