lammpslib autogenerated data file

8 atoms
1 atom types

  0.00000000e+00   5.00000000e+00 xlo xhi
  0.00000000e+00   5.00000000e+00 ylo yhi
  0.00000000e+00   5.00000000e+00 zlo zhi
  0.00000000e+00   0.00000000e+00   0.00000000e+00 xy xz yz


Atoms 

   1    1  -1.06399581e-01   0.00000000e+00   0.00000000e+00
   2    1   1.25000000e+00   1.25000000e+00   1.25000000e+00
   3    1   0.00000000e+00   2.50000000e+00   2.50000000e+00
   4    1   1.25000000e+00   3.75000000e+00   3.75000000e+00
   5    1   2.50000000e+00   0.00000000e+00   2.50000000e+00
   6    1   3.75000000e+00   1.25000000e+00   3.75000000e+00
   7    1   2.50000000e+00   2.50000000e+00   0.00000000e+00
   8    1   3.75000000e+00   3.75000000e+00   1.25000000e+00
