lammpslib autogenerated data file

9 atoms
2 atom types

  0.00000000e+00   5.02778205e+00 xlo xhi
  0.00000000e+00   4.35418698e+00 ylo yhi
  0.00000000e+00   5.51891800e+00 zlo zhi
 -2.51389102e+00   0.00000000e+00   0.00000000e+00 xy xz yz


Atoms 

   1    2  -1.19985505e+00   2.07820990e+00   1.83963931e+00
   2    2   1.31403598e+00   2.27597708e+00   5.51891798e+00
   3    2   2.39971009e+00   0.00000000e+00   3.67927865e+00
   4    1  -1.06645039e+00   3.24693029e+00   2.96550046e+00
   5    1   2.35192103e-01   1.80714870e+00   1.12586113e+00
   6    1   8.31258290e-01   3.65429496e+00   4.80513980e+00
   7    1   3.34514931e+00   6.99892015e-01   2.55341754e+00
   8    1   1.44744063e+00   1.10725669e+00   4.39305687e+00
   9    1   2.74908313e+00   2.54703828e+00   7.13778203e-01
