ITEM: TIMESTEP
0
ITEM: NUMBER OF ATOMS
9
ITEM: BOX BOUNDS xy xz yz pp pp pp
-2.5138910200000000e+00 5.0277820499999999e+00 -2.5138910200000000e+00
0.0000000000000000e+00 4.3541869799999997e+00 0.0000000000000000e+00
0.0000000000000000e+00 5.5189180000000002e+00 0.0000000000000000e+00
ITEM: ATOMS c_sna[1] c_sna[2] c_sna[3] c_sna[4] c_sna[5] c_sna[6] c_sna[7] c_sna[8] c_sna[9] c_sna[10] c_sna[11] c_sna[12] c_sna[13] c_sna[14] c_sna[15] c_sna[16] c_sna[17] c_sna[18] c_sna[19] c_sna[20] c_sna[21] c_sna[22] c_sna[23] c_sna[24] c_sna[25] c_sna[26] c_sna[27] c_sna[28] c_sna[29] c_sna[30]
171214 2518.46 462.344 11791.8 842.364 321.244 -1269.52 72118.6 -1655.24 -4621.58 5566.49 14037.8 10928.3 52992.9 -1869.43 -177.514 493.658 4433.8 -161.195 11524.4 62831.8 -816.762 484.52 10915.3 9004.62 8354.45 91512.4 1766.18 2227.96 5917.09
171214 2518.46 462.344 11791.8 842.364 321.244 -1269.52 72118.6 -1655.24 -4621.58 5566.49 14037.8 10928.3 52992.9 -1869.43 -177.514 493.658 4433.8 -161.195 11524.4 62831.8 -816.762 484.52 10915.3 9004.62 8354.45 91512.4 1766.18 2227.96 5917.09
171214 2518.46 462.344 11791.8 842.364 321.244 -1269.52 72118.6 -1655.24 -4621.58 5566.49 14037.8 10928.3 52992.9 -1869.43 -177.514 493.658 4433.8 -161.195 11524.4 62831.8 -816.762 484.52 10915.3 9004.62 8354.45 91512.4 1766.18 2227.96 5917.09
253742 10949.7 -2169.19 84549.4 -1181.33 7408.81 14740.9 88550.7 341.777 25963.3 16690.3 8947.97 32622.9 37961.3 -1875.5 2175.52 14058.4 7628.96 770.792 3315.62 89119.2 289.017 6574.79 16724.3 3699.46 10688 155124 28070.3 10738.1 23400.6
253742 10949.7 -2169.19 84549.4 -1181.33 7408.81 14740.9 88550.7 341.777 25963.3 16690.3 8947.97 32622.9 37961.3 -1875.5 2175.52 14058.4 7628.96 770.793 3315.62 89119.2 289.017 6574.79 16724.3 3699.46 10688 155124 28070.3 10738.1 23400.6
253742 10949.7 -2169.19 84549.4 -1181.33 7408.81 14740.9 88550.7 341.777 25963.3 16690.3 8947.97 32622.9 37961.3 -1875.5 2175.52 14058.4 7628.96 770.793 3315.62 89119.2 289.017 6574.79 16724.3 3699.47 10688 155124 28070.3 10738.1 23400.6
253742 10949.7 -2169.19 84549.4 -1181.33 7408.81 14740.9 88550.7 341.777 25963.3 16690.3 8947.97 32622.9 37961.3 -1875.5 2175.52 14058.4 7628.96 770.792 3315.62 89119.2 289.017 6574.79 16724.3 3699.47 10688 155124 28070.3 10738.1 23400.6
253742 10949.7 -2169.19 84549.4 -1181.33 7408.81 14740.9 88550.7 341.777 25963.3 16690.3 8947.97 32622.9 37961.3 -1875.5 2175.52 14058.4 7628.96 770.792 3315.62 89119.2 289.017 6574.79 16724.3 3699.47 10688 155124 28070.3 10738.1 23400.6
253742 10949.7 -2169.19 84549.4 -1181.33 7408.81 14740.9 88550.7 341.777 25963.3 16690.3 8947.97 32622.9 37961.3 -1875.5 2175.52 14058.4 7628.96 770.792 3315.62 89119.2 289.017 6574.79 16724.3 3699.47 10688 155124 28070.3 10738.1 23400.6
