ITEM: TIMESTEP
0
ITEM: NUMBER OF ATOMS
9
ITEM: BOX BOUNDS xy xz yz pp pp pp
-2.5138910200000000e+00 5.0277820499999999e+00 -2.5138910200000000e+00
0.0000000000000000e+00 4.3541869799999997e+00 0.0000000000000000e+00
0.0000000000000000e+00 5.5189180000000002e+00 0.0000000000000000e+00
ITEM: ATOMS id type fx fy fz
1 2 -0.383494 0.664231 8.74873e-07
2 2 -0.383494 -0.664231 9.67158e-07
3 2 0.766988 -7.072e-08 7.44083e-07
4 1 0.0593488 0.902429 -1.31986
5 1 -0.811201 -0.399817 -1.31986
6 1 0.751852 -0.502612 -1.31986
7 1 0.751853 0.502613 1.31985
8 1 0.0593492 -0.90243 1.31985
9 1 -0.811202 0.399817 1.31985
