ITEM: TIMESTEP
0
ITEM: NUMBER OF ATOMS
8
ITEM: BOX BOUNDS pp pp pp
0.0000000000000000e+00 5.0000000000000000e+00
0.0000000000000000e+00 5.0000000000000000e+00
0.0000000000000000e+00 5.0000000000000000e+00
ITEM: ATOMS id type fx fy fz
1 1 -0.89587 -1.03163 -0.96613
2 1 0.89587 1.03163 0.96613
3 1 0 0 0
4 1 -0.0211653 0.0189747 -0.0191586
5 1 0 0 0
6 1 0 0 0
7 1 0.0211653 -0.0189747 0.0191586
8 1 0 0 0
