Si.data (written by ASE) 

8 	 atoms 
1  atom types
0.0                       5  xlo xhi
0.0                       5  ylo yhi
0.0                       5  zlo zhi


Atoms 

     1   1                  0.1192    0.026200000000000005    0.059799999999999999
     2   1                  1.1348                  1.1957      1.1550499999999999
     3   1      4.9490499999999997      2.4047000000000001      2.4544999999999999
     4   1                 1.22855      3.6410499999999999      3.7980999999999998
     5   1      2.5166500000000003      4.9413499999999999      2.5058000000000002
     6   1      3.6485000000000007      1.2690000000000001      3.8573000000000008
     7   1                 2.45465      2.5418500000000006      4.9079499999999996
     8   1                  3.8041      3.6973499999999997      1.1708000000000003
